# vtk DataFile Version 3.0
PRESSURE
ASCII

DATASET RECTILINEAR_GRID
DIMENSIONS  52  200  1
X_COORDINATES    52 float
0.010000
0.030000
0.050000
0.070000
0.090000
0.110000
0.130000
0.150000
0.170000
0.190000
0.210000
0.230000
0.250000
0.270000
0.290000
0.310000
0.330000
0.350000
0.370000
0.390000
0.410000
0.430000
0.450000
0.470000
0.490000
0.510000
0.530000
0.550000
0.570000
0.590000
0.610000
0.630000
0.650000
0.670000
0.690000
0.710000
0.730000
0.750000
0.770000
0.790000
0.810000
0.830000
0.850000
0.870000
0.890000
0.910000
0.930000
0.950000
0.970000
0.990000
1.010000
1.030000
Y_COORDINATES    200 float
0.010000
0.030000
0.050000
0.070000
0.090000
0.110000
0.130000
0.150000
0.170000
0.190000
0.210000
0.230000
0.250000
0.270000
0.290000
0.310000
0.330000
0.350000
0.370000
0.390000
0.410000
0.430000
0.450000
0.470000
0.490000
0.510000
0.530000
0.550000
0.570000
0.590000
0.610000
0.630000
0.650000
0.670000
0.690000
0.710000
0.730000
0.750000
0.770000
0.790000
0.810000
0.830000
0.850000
0.870000
0.890000
0.910000
0.930000
0.950000
0.970000
0.990000
1.010000
1.030000
1.050000
1.070000
1.090000
1.110000
1.130000
1.150000
1.170000
1.190000
1.210000
1.230000
1.250000
1.270000
1.290000
1.310000
1.330000
1.350000
1.370000
1.390000
1.410000
1.430000
1.450000
1.470000
1.490000
1.510000
1.530000
1.550000
1.570000
1.590000
1.610000
1.630000
1.650000
1.670000
1.690000
1.710000
1.730000
1.750000
1.770000
1.790000
1.810000
1.830000
1.850000
1.870000
1.890000
1.910000
1.930000
1.950000
1.970000
1.990000
2.010000
2.030000
2.050000
2.070000
2.090000
2.110000
2.130000
2.150000
2.170000
2.190000
2.210000
2.230000
2.250000
2.270000
2.290000
2.310000
2.330000
2.350000
2.370000
2.390000
2.410000
2.430000
2.450000
2.470000
2.490000
2.510000
2.530000
2.550000
2.570000
2.590000
2.610000
2.630000
2.650000
2.670000
2.690000
2.710000
2.730000
2.750000
2.770000
2.790000
2.810000
2.830000
2.850000
2.870000
2.890000
2.910000
2.930000
2.950000
2.970000
2.990000
3.010000
3.030000
3.050000
3.070000
3.090000
3.110000
3.130000
3.150000
3.170000
3.190000
3.210000
3.230000
3.250000
3.270000
3.290000
3.310000
3.330000
3.350000
3.370000
3.390000
3.410000
3.430000
3.450000
3.470000
3.490000
3.510000
3.530000
3.550000
3.570000
3.590000
3.610000
3.630000
3.650000
3.670000
3.690000
3.710000
3.730000
3.750000
3.770000
3.790000
3.810000
3.830000
3.850000
3.870000
3.890000
3.910000
3.930000
3.950000
3.970000
3.990000
Z_COORDINATES    1 float
0.000000
POINT_DATA 10400
SCALARS PRESSURE float
LOOKUP_TABLE default
41.692834
41.693078
41.693080
41.693087
41.693094
41.693096
41.693104
41.693110
41.693114
41.693117
41.693118
41.693119
41.693120
41.693121
41.693121
41.693121
41.693121
41.693122
41.693122
41.693122
41.693122
41.693122
41.693122
41.693122
41.693122
41.693122
41.693122
41.693122
41.693122
41.693122
41.693122
41.693122
41.693122
41.693122
41.693122
41.693121
41.693121
41.693121
41.693121
41.693120
41.693119
41.693118
41.693117
41.693114
41.693110
41.693104
41.693096
41.693094
41.693087
41.693080
41.693078
41.692834
41.534762
41.534557
41.534559
41.534561
41.534566
41.534577
41.534580
41.534583
41.534585
41.534586
41.534587
41.534588
41.534589
41.534589
41.534590
41.534590
41.534590
41.534590
41.534591
41.534591
41.534591
41.534591
41.534591
41.534591
41.534591
41.534591
41.534591
41.534591
41.534591
41.534591
41.534591
41.534591
41.534591
41.534591
41.534590
41.534590
41.534590
41.534590
41.534589
41.534589
41.534588
41.534587
41.534586
41.534585
41.534583
41.534580
41.534577
41.534566
41.534561
41.534559
41.534557
41.534762
41.343511
41.343486
41.343485
41.343484
41.343483
41.343482
41.343481
41.343481
41.343481
41.343482
41.343483
41.343483
41.343484
41.343484
41.343484
41.343484
41.343485
41.343485
41.343485
41.343485
41.343485
41.343485
41.343485
41.343485
41.343485
41.343485
41.343485
41.343485
41.343485
41.343485
41.343485
41.343485
41.343485
41.343485
41.343485
41.343485
41.343484
41.343484
41.343484
41.343484
41.343483
41.343483
41.343482
41.343481
41.343481
41.343481
41.343482
41.343483
41.343484
41.343485
41.343486
41.343511
41.144685
41.144676
41.144675
41.144674
41.144671
41.144668
41.144666
41.144665
41.144665
41.144665
41.144665
41.144665
41.144665
41.144666
41.144666
41.144666
41.144666
41.144666
41.144666
41.144667
41.144667
41.144667
41.144667
41.144667
41.144667
41.144667
41.144667
41.144667
41.144667
41.144667
41.144667
41.144667
41.144667
41.144666
41.144666
41.144666
41.144666
41.144666
41.144666
41.144665
41.144665
41.144665
41.144665
41.144665
41.144665
41.144666
41.144668
41.144671
41.144674
41.144675
41.144676
41.144685
40.944502
40.944499
40.944498
40.944497
40.944495
40.944492
40.944490
40.944489
40.944488
40.944488
40.944488
40.944488
40.944488
40.944488
40.944488
40.944489
40.944489
40.944489
40.944489
40.944489
40.944489
40.944489
40.944489
40.944489
40.944489
40.944489
40.944489
40.944489
40.944489
40.944489
40.944489
40.944489
40.944489
40.944489
40.944489
40.944489
40.944489
40.944488
40.944488
40.944488
40.944488
40.944488
40.944488
40.944488
40.944489
40.944490
40.944492
40.944495
40.944497
40.944498
40.944499
40.944502
40.744242
40.744241
40.744241
40.744239
40.744238
40.744236
40.744235
40.744233
40.744233
40.744232
40.744232
40.744232
40.744232
40.744232
40.744232
40.744232
40.744232
40.744232
40.744232
40.744233
40.744233
40.744233
40.744233
40.744233
40.744233
40.744233
40.744233
40.744233
40.744233
40.744233
40.744233
40.744233
40.744233
40.744232
40.744232
40.744232
40.744232
40.744232
40.744232
40.744232
40.744232
40.744232
40.744232
40.744233
40.744233
40.744235
40.744236
40.744238
40.744239
40.744241
40.744241
40.744242
40.544086
40.544085
40.544085
40.544084
40.544083
40.544082
40.544081
40.544080
40.544079
40.544079
40.544078
40.544078
40.544078
40.544078
40.544078
40.544078
40.544078
40.544078
40.544078
40.544078
40.544078
40.544078
40.544078
40.544078
40.544078
40.544078
40.544078
40.544078
40.544078
40.544078
40.544078
40.544078
40.544078
40.544078
40.544078
40.544078
40.544078
40.544078
40.544078
40.544078
40.544078
40.544078
40.544079
40.544079
40.544080
40.544081
40.544082
40.544083
40.544084
40.544085
40.544085
40.544086
40.344009
40.344009
40.344008
40.344008
40.344007
40.344006
40.344005
40.344005
40.344004
40.344004
40.344003
40.344003
40.344003
40.344003
40.344003
40.344003
40.344003
40.344003
40.344003
40.344003
40.344003
40.344003
40.344003
40.344003
40.344003
40.344003
40.344003
40.344003
40.344003
40.344003
40.344003
40.344003
40.344003
40.344003
40.344003
40.344003
40.344003
40.344003
40.344003
40.344003
40.344003
40.344003
40.344004
40.344004
40.344005
40.344005
40.344006
40.344007
40.344008
40.344008
40.344009
40.344009
40.143974
40.143974
40.143974
40.143974
40.143973
40.143973
40.143972
40.143971
40.143971
40.143970
40.143970
40.143970
40.143970
40.143970
40.143970
40.143970
40.143970
40.143970
40.143970
40.143970
40.143970
40.143970
40.143970
40.143970
40.143970
40.143970
40.143970
40.143970
40.143970
40.143970
40.143970
40.143970
40.143970
40.143970
40.143970
40.143970
40.143970
40.143970
40.143970
40.143970
40.143970
40.143970
40.143970
40.143971
40.143971
40.143972
40.143973
40.143973
40.143974
40.143974
40.143974
40.143974
39.943960
39.943960
39.943960
39.943959
39.943959
39.943958
39.943958
39.943957
39.943957
39.943957
39.943956
39.943956
39.943956
39.943956
39.943956
39.943956
39.943956
39.943956
39.943956
39.943956
39.943956
39.943956
39.943956
39.943956
39.943956
39.943956
39.943956
39.943956
39.943956
39.943956
39.943956
39.943956
39.943956
39.943956
39.943956
39.943956
39.943956
39.943956
39.943956
39.943956
39.943956
39.943956
39.943957
39.943957
39.943957
39.943958
39.943958
39.943959
39.943959
39.943960
39.943960
39.943960
39.743953
39.743953
39.743953
39.743953
39.743953
39.743952
39.743952
39.743952
39.743951
39.743951
39.743951
39.743951
39.743951
39.743950
39.743950
39.743950
39.743950
39.743950
39.743950
39.743950
39.743950
39.743950
39.743950
39.743950
39.743950
39.743950
39.743950
39.743950
39.743950
39.743950
39.743950
39.743950
39.743950
39.743950
39.743950
39.743950
39.743950
39.743950
39.743950
39.743951
39.743951
39.743951
39.743951
39.743951
39.743952
39.743952
39.743952
39.743953
39.743953
39.743953
39.743953
39.743953
39.543951
39.543951
39.543951
39.543951
39.543950
39.543950
39.543950
39.543949
39.543949
39.543949
39.543949
39.543949
39.543948
39.543948
39.543948
39.543948
39.543948
39.543948
39.543948
39.543948
39.543948
39.543948
39.543948
39.543948
39.543948
39.543948
39.543948
39.543948
39.543948
39.543948
39.543948
39.543948
39.543948
39.543948
39.543948
39.543948
39.543948
39.543948
39.543948
39.543948
39.543949
39.543949
39.543949
39.543949
39.543949
39.543950
39.543950
39.543950
39.543951
39.543951
39.543951
39.543951
39.343950
39.343950
39.343949
39.343949
39.343949
39.343949
39.343949
39.343949
39.343948
39.343948
39.343948
39.343948
39.343948
39.343948
39.343948
39.343947
39.343947
39.343947
39.343947
39.343947
39.343947
39.343947
39.343947
39.343947
39.343947
39.343947
39.343947
39.343947
39.343947
39.343947
39.343947
39.343947
39.343947
39.343947
39.343947
39.343947
39.343947
39.343948
39.343948
39.343948
39.343948
39.343948
39.343948
39.343948
39.343949
39.343949
39.343949
39.343949
39.343949
39.343949
39.343950
39.343950
39.143949
39.143949
39.143949
39.143949
39.143949
39.143948
39.143948
39.143948
39.143948
39.143948
39.143948
39.143948
39.143947
39.143947
39.143947
39.143947
39.143947
39.143947
39.143947
39.143947
39.143947
39.143947
39.143947
39.143947
39.143947
39.143947
39.143947
39.143947
39.143947
39.143947
39.143947
39.143947
39.143947
39.143947
39.143947
39.143947
39.143947
39.143947
39.143947
39.143947
39.143948
39.143948
39.143948
39.143948
39.143948
39.143948
39.143948
39.143949
39.143949
39.143949
39.143949
39.143949
38.943949
38.943949
38.943948
38.943948
38.943948
38.943948
38.943948
38.943948
38.943948
38.943948
38.943948
38.943947
38.943947
38.943947
38.943947
38.943947
38.943947
38.943947
38.943947
38.943947
38.943947
38.943947
38.943947
38.943947
38.943947
38.943947
38.943947
38.943947
38.943947
38.943947
38.943947
38.943947
38.943947
38.943947
38.943947
38.943947
38.943947
38.943947
38.943947
38.943947
38.943947
38.943948
38.943948
38.943948
38.943948
38.943948
38.943948
38.943948
38.943948
38.943948
38.943949
38.943949
38.743948
38.743948
38.743948
38.743948
38.743948
38.743948
38.743948
38.743948
38.743948
38.743948
38.743948
38.743947
38.743947
38.743947
38.743947
38.743947
38.743947
38.743947
38.743947
38.743947
38.743947
38.743947
38.743947
38.743947
38.743947
38.743947
38.743947
38.743947
38.743947
38.743947
38.743947
38.743947
38.743947
38.743947
38.743947
38.743947
38.743947
38.743947
38.743947
38.743947
38.743947
38.743948
38.743948
38.743948
38.743948
38.743948
38.743948
38.743948
38.743948
38.743948
38.743948
38.743948
38.543948
38.543948
38.543948
38.543948
38.543948
38.543948
38.543948
38.543948
38.543948
38.543948
38.543947
38.543947
38.543947
38.543947
38.543947
38.543947
38.543947
38.543947
38.543947
38.543947
38.543947
38.543947
38.543947
38.543947
38.543947
38.543947
38.543947
38.543947
38.543947
38.543947
38.543947
38.543947
38.543947
38.543947
38.543947
38.543947
38.543947
38.543947
38.543947
38.543947
38.543947
38.543947
38.543948
38.543948
38.543948
38.543948
38.543948
38.543948
38.543948
38.543948
38.543948
38.543948
38.343948
38.343948
38.343948
38.343948
38.343948
38.343948
38.343948
38.343948
38.343948
38.343948
38.343947
38.343947
38.343947
38.343947
38.343947
38.343947
38.343947
38.343947
38.343947
38.343947
38.343947
38.343947
38.343947
38.343947
38.343947
38.343947
38.343947
38.343947
38.343947
38.343947
38.343947
38.343947
38.343947
38.343947
38.343947
38.343947
38.343947
38.343947
38.343947
38.343947
38.343947
38.343947
38.343948
38.343948
38.343948
38.343948
38.343948
38.343948
38.343948
38.343948
38.343948
38.343948
38.143948
38.143948
38.143948
38.143948
38.143948
38.143948
38.143948
38.143948
38.143947
38.143947
38.143947
38.143947
38.143947
38.143947
38.143947
38.143947
38.143947
38.143947
38.143947
38.143947
38.143947
38.143947
38.143947
38.143947
38.143947
38.143947
38.143947
38.143947
38.143947
38.143947
38.143947
38.143947
38.143947
38.143947
38.143947
38.143947
38.143947
38.143947
38.143947
38.143947
38.143947
38.143947
38.143947
38.143947
38.143948
38.143948
38.143948
38.143948
38.143948
38.143948
38.143948
38.143948
37.943948
37.943948
37.943948
37.943948
37.943947
37.943947
37.943947
37.943947
37.943947
37.943947
37.943947
37.943947
37.943947
37.943947
37.943947
37.943947
37.943947
37.943947
37.943947
37.943948
37.943948
37.943948
37.943948
37.943948
37.943948
37.943948
37.943948
37.943948
37.943948
37.943948
37.943948
37.943948
37.943948
37.943947
37.943947
37.943947
37.943947
37.943947
37.943947
37.943947
37.943947
37.943947
37.943947
37.943947
37.943947
37.943947
37.943947
37.943947
37.943948
37.943948
37.943948
37.943948
37.743947
37.743947
37.743947
37.743947
37.743947
37.743947
37.743947
37.743947
37.743947
37.743947
37.743947
37.743947
37.743947
37.743947
37.743947
37.743947
37.743948
37.743948
37.743948
37.743948
37.743948
37.743948
37.743948
37.743948
37.743948
37.743948
37.743948
37.743948
37.743948
37.743948
37.743948
37.743948
37.743948
37.743948
37.743948
37.743948
37.743947
37.743947
37.743947
37.743947
37.743947
37.743947
37.743947
37.743947
37.743947
37.743947
37.743947
37.743947
37.743947
37.743947
37.743947
37.743947
37.543947
37.543947
37.543947
37.543947
37.543947
37.543947
37.543947
37.543947
37.543947
37.543947
37.543947
37.543947
37.543947
37.543947
37.543947
37.543948
37.543948
37.543948
37.543948
37.543948
37.543948
37.543948
37.543948
37.543948
37.543948
37.543948
37.543948
37.543948
37.543948
37.543948
37.543948
37.543948
37.543948
37.543948
37.543948
37.543948
37.543948
37.543947
37.543947
37.543947
37.543947
37.543947
37.543947
37.543947
37.543947
37.543947
37.543947
37.543947
37.543947
37.543947
37.543947
37.543947
37.343947
37.343947
37.343947
37.343947
37.343947
37.343947
37.343947
37.343947
37.343947
37.343947
37.343947
37.343947
37.343947
37.343947
37.343947
37.343948
37.343948
37.343948
37.343948
37.343948
37.343948
37.343948
37.343948
37.343948
37.343948
37.343948
37.343948
37.343948
37.343948
37.343948
37.343948
37.343948
37.343948
37.343948
37.343948
37.343948
37.343948
37.343947
37.343947
37.343947
37.343947
37.343947
37.343947
37.343947
37.343947
37.343947
37.343947
37.343947
37.343947
37.343947
37.343947
37.343947
37.143947
37.143947
37.143947
37.143947
37.143947
37.143947
37.143947
37.143947
37.143947
37.143947
37.143947
37.143947
37.143947
37.143947
37.143948
37.143948
37.143948
37.143948
37.143948
37.143948
37.143948
37.143948
37.143948
37.143948
37.143948
37.143948
37.143948
37.143948
37.143948
37.143948
37.143948
37.143948
37.143948
37.143948
37.143948
37.143948
37.143948
37.143948
37.143947
37.143947
37.143947
37.143947
37.143947
37.143947
37.143947
37.143947
37.143947
37.143947
37.143947
37.143947
37.143947
37.143947
36.943947
36.943947
36.943947
36.943947
36.943947
36.943947
36.943947
36.943947
36.943947
36.943947
36.943947
36.943947
36.943947
36.943947
36.943948
36.943948
36.943948
36.943948
36.943948
36.943948
36.943948
36.943948
36.943948
36.943948
36.943948
36.943948
36.943948
36.943948
36.943948
36.943948
36.943948
36.943948
36.943948
36.943948
36.943948
36.943948
36.943948
36.943948
36.943947
36.943947
36.943947
36.943947
36.943947
36.943947
36.943947
36.943947
36.943947
36.943947
36.943947
36.943947
36.943947
36.943947
36.743947
36.743947
36.743947
36.743947
36.743947
36.743947
36.743947
36.743947
36.743947
36.743947
36.743947
36.743947
36.743947
36.743947
36.743948
36.743948
36.743948
36.743948
36.743948
36.743948
36.743948
36.743948
36.743948
36.743948
36.743948
36.743948
36.743948
36.743948
36.743948
36.743948
36.743948
36.743948
36.743948
36.743948
36.743948
36.743948
36.743948
36.743948
36.743947
36.743947
36.743947
36.743947
36.743947
36.743947
36.743947
36.743947
36.743947
36.743947
36.743947
36.743947
36.743947
36.743947
36.543946
36.543946
36.543946
36.543946
36.543947
36.543947
36.543947
36.543947
36.543947
36.543947
36.543947
36.543947
36.543947
36.543947
36.543948
36.543948
36.543948
36.543948
36.543948
36.543948
36.543948
36.543948
36.543948
36.543948
36.543949
36.543949
36.543949
36.543949
36.543948
36.543948
36.543948
36.543948
36.543948
36.543948
36.543948
36.543948
36.543948
36.543948
36.543947
36.543947
36.543947
36.543947
36.543947
36.543947
36.543947
36.543947
36.543947
36.543947
36.543946
36.543946
36.543946
36.543946
36.343946
36.343946
36.343946
36.343946
36.343946
36.343946
36.343947
36.343947
36.343947
36.343947
36.343947
36.343947
36.343947
36.343947
36.343948
36.343948
36.343948
36.343948
36.343948
36.343948
36.343948
36.343949
36.343949
36.343949
36.343949
36.343949
36.343949
36.343949
36.343949
36.343949
36.343949
36.343948
36.343948
36.343948
36.343948
36.343948
36.343948
36.343948
36.343947
36.343947
36.343947
36.343947
36.343947
36.343947
36.343947
36.343947
36.343946
36.343946
36.343946
36.343946
36.343946
36.343946
36.143946
36.143946
36.143946
36.143946
36.143946
36.143946
36.143946
36.143946
36.143947
36.143947
36.143947
36.143947
36.143947
36.143947
36.143948
36.143948
36.143948
36.143948
36.143948
36.143948
36.143949
36.143949
36.143949
36.143949
36.143949
36.143949
36.143949
36.143949
36.143949
36.143949
36.143949
36.143949
36.143948
36.143948
36.143948
36.143948
36.143948
36.143948
36.143947
36.143947
36.143947
36.143947
36.143947
36.143947
36.143946
36.143946
36.143946
36.143946
36.143946
36.143946
36.143946
36.143946
35.943946
35.943946
35.943946
35.943946
35.943946
35.943946
35.943946
35.943946
35.943946
35.943947
35.943947
35.943947
35.943947
35.943947
35.943948
35.943948
35.943948
35.943948
35.943948
35.943949
35.943949
35.943949
35.943949
35.943949
35.943949
35.943949
35.943949
35.943949
35.943949
35.943949
35.943949
35.943949
35.943949
35.943948
35.943948
35.943948
35.943948
35.943948
35.943947
35.943947
35.943947
35.943947
35.943947
35.943946
35.943946
35.943946
35.943946
35.943946
35.943946
35.943946
35.943946
35.943946
35.743946
35.743946
35.743946
35.743946
35.743946
35.743946
35.743946
35.743946
35.743946
35.743947
35.743947
35.743947
35.743947
35.743947
35.743948
35.743948
35.743948
35.743948
35.743949
35.743949
35.743949
35.743949
35.743949
35.743949
35.743949
35.743949
35.743949
35.743949
35.743949
35.743949
35.743949
35.743949
35.743949
35.743949
35.743948
35.743948
35.743948
35.743948
35.743947
35.743947
35.743947
35.743947
35.743947
35.743946
35.743946
35.743946
35.743946
35.743946
35.743946
35.743946
35.743946
35.743946
35.543945
35.543945
35.543945
35.543945
35.543945
35.543946
35.543946
35.543946
35.543946
35.543946
35.543947
35.543947
35.543947
35.543947
35.543948
35.543948
35.543948
35.543949
35.543949
35.543949
35.543949
35.543949
35.543950
35.543950
35.543950
35.543950
35.543950
35.543950
35.543950
35.543950
35.543949
35.543949
35.543949
35.543949
35.543949
35.543948
35.543948
35.543948
35.543947
35.543947
35.543947
35.543947
35.543946
35.543946
35.543946
35.543946
35.543946
35.543945
35.543945
35.543945
35.543945
35.543945
35.343945
35.343945
35.343945
35.343945
35.343945
35.343945
35.343946
35.343946
35.343946
35.343946
35.343947
35.343947
35.343947
35.343947
35.343948
35.343948
35.343948
35.343949
35.343949
35.343949
35.343949
35.343950
35.343950
35.343950
35.343950
35.343950
35.343950
35.343950
35.343950
35.343950
35.343950
35.343949
35.343949
35.343949
35.343949
35.343948
35.343948
35.343948
35.343947
35.343947
35.343947
35.343947
35.343946
35.343946
35.343946
35.343946
35.343945
35.343945
35.343945
35.343945
35.343945
35.343945
35.143945
35.143945
35.143945
35.143945
35.143945
35.143945
35.143945
35.143945
35.143946
35.143946
35.143946
35.143947
35.143947
35.143947
35.143948
35.143948
35.143949
35.143949
35.143949
35.143949
35.143950
35.143950
35.143950
35.143950
35.143950
35.143950
35.143950
35.143950
35.143950
35.143950
35.143950
35.143950
35.143949
35.143949
35.143949
35.143949
35.143948
35.143948
35.143947
35.143947
35.143947
35.143946
35.143946
35.143946
35.143945
35.143945
35.143945
35.143945
35.143945
35.143945
35.143945
35.143945
34.943944
34.943944
34.943944
34.943944
34.943944
34.943945
34.943945
34.943945
34.943946
34.943946
34.943946
34.943947
34.943947
34.943947
34.943948
34.943948
34.943949
34.943949
34.943949
34.943950
34.943950
34.943950
34.943950
34.943951
34.943951
34.943951
34.943951
34.943951
34.943951
34.943950
34.943950
34.943950
34.943950
34.943949
34.943949
34.943949
34.943948
34.943948
34.943947
34.943947
34.943947
34.943946
34.943946
34.943946
34.943945
34.943945
34.943945
34.943944
34.943944
34.943944
34.943944
34.943944
34.743944
34.743944
34.743944
34.743944
34.743944
34.743944
34.743945
34.743945
34.743945
34.743946
34.743946
34.743947
34.743947
34.743947
34.743948
34.743948
34.743949
34.743949
34.743950
34.743950
34.743950
34.743951
34.743951
34.743951
34.743951
34.743951
34.743951
34.743951
34.743951
34.743951
34.743951
34.743950
34.743950
34.743950
34.743949
34.743949
34.743948
34.743948
34.743947
34.743947
34.743947
34.743946
34.743946
34.743945
34.743945
34.743945
34.743944
34.743944
34.743944
34.743944
34.743944
34.743944
34.543943
34.543943
34.543943
34.543943
34.543944
34.543944
34.543944
34.543945
34.543945
34.543945
34.543946
34.543946
34.543947
34.543947
34.543948
34.543949
34.543949
34.543950
34.543950
34.543950
34.543951
34.543951
34.543951
34.543952
34.543952
34.543952
34.543952
34.543952
34.543952
34.543951
34.543951
34.543951
34.543950
34.543950
34.543950
34.543949
34.543949
34.543948
34.543947
34.543947
34.543946
34.543946
34.543945
34.543945
34.543945
34.543944
34.543944
34.543944
34.543943
34.543943
34.543943
34.543943
34.343943
34.343943
34.343943
34.343943
34.343943
34.343943
34.343944
34.343944
34.343945
34.343945
34.343946
34.343946
34.343947
34.343947
34.343948
34.343949
34.343949
34.343950
34.343950
34.343951
34.343951
34.343952
34.343952
34.343952
34.343952
34.343952
34.343952
34.343952
34.343952
34.343952
34.343952
34.343951
34.343951
34.343950
34.343950
34.343949
34.343949
34.343948
34.343947
34.343947
34.343946
34.343946
34.343945
34.343945
34.343944
34.343944
34.343943
34.343943
34.343943
34.343943
34.343943
34.343943
34.143942
34.143942
34.143942
34.143942
34.143942
34.143943
34.143943
34.143944
34.143944
34.143945
34.143945
34.143946
34.143947
34.143947
34.143948
34.143949
34.143950
34.143950
34.143951
34.143951
34.143952
34.143952
34.143953
34.143953
34.143953
34.143953
34.143953
34.143953
34.143953
34.143953
34.143952
34.143952
34.143951
34.143951
34.143950
34.143950
34.143949
34.143948
34.143947
34.143947
34.143946
34.143945
34.143945
34.143944
34.143944
34.143943
34.143943
34.143942
34.143942
34.143942
34.143942
34.143942
33.943941
33.943941
33.943941
33.943941
33.943942
33.943942
33.943943
33.943943
33.943944
33.943944
33.943945
33.943946
33.943947
33.943947
33.943948
33.943949
33.943950
33.943951
33.943951
33.943952
33.943952
33.943953
33.943953
33.943953
33.943954
33.943954
33.943954
33.943954
33.943953
33.943953
33.943953
33.943952
33.943952
33.943951
33.943951
33.943950
33.943949
33.943948
33.943947
33.943947
33.943946
33.943945
33.943944
33.943944
33.943943
33.943943
33.943942
33.943942
33.943941
33.943941
33.943941
33.943941
33.743940
33.743940
33.743940
33.743941
33.743941
33.743941
33.743942
33.743943
33.743943
33.743944
33.743945
33.743946
33.743947
33.743947
33.743948
33.743949
33.743950
33.743951
33.743952
33.743952
33.743953
33.743954
33.743954
33.743954
33.743955
33.743955
33.743955
33.743955
33.743954
33.743954
33.743954
33.743953
33.743952
33.743952
33.743951
33.743950
33.743949
33.743948
33.743947
33.743947
33.743946
33.743945
33.743944
33.743943
33.743943
33.743942
33.743941
33.743941
33.743941
33.743940
33.743940
33.743940
33.543939
33.543939
33.543939
33.543940
33.543940
33.543941
33.543941
33.543942
33.543943
33.543944
33.543944
33.543945
33.543946
33.543947
33.543948
33.543950
33.543950
33.543951
33.543952
33.543953
33.543954
33.543954
33.543955
33.543955
33.543955
33.543956
33.543956
33.543955
33.543955
33.543955
33.543954
33.543954
33.543953
33.543952
33.543951
33.543950
33.543950
33.543948
33.543947
33.543946
33.543945
33.543944
33.543944
33.543943
33.543942
33.543941
33.543941
33.543940
33.543940
33.543939
33.543939
33.543939
33.343938
33.343938
33.343938
33.343939
33.343939
33.343940
33.343940
33.343941
33.343942
33.343943
33.343944
33.343945
33.343946
33.343947
33.343949
33.343950
33.343951
33.343952
33.343953
33.343954
33.343955
33.343955
33.343956
33.343956
33.343957
33.343957
33.343957
33.343957
33.343956
33.343956
33.343955
33.343955
33.343954
33.343953
33.343952
33.343951
33.343950
33.343949
33.343947
33.343946
33.343945
33.343944
33.343943
33.343942
33.343941
33.343940
33.343940
33.343939
33.343939
33.343938
33.343938
33.343938
33.143937
33.143937
33.143937
33.143938
33.143938
33.143939
33.143939
33.143940
33.143941
33.143942
33.143944
33.143945
33.143946
33.143947
33.143949
33.143950
33.143951
33.143953
33.143954
33.143955
33.143956
33.143956
33.143957
33.143957
33.143958
33.143958
33.143958
33.143958
33.143957
33.143957
33.143956
33.143956
33.143955
33.143954
33.143953
33.143951
33.143950
33.143949
33.143947
33.143946
33.143945
33.143944
33.143942
33.143941
33.143940
33.143939
33.143939
33.143938
33.143938
33.143937
33.143937
33.143937
32.943936
32.943936
32.943936
32.943936
32.943937
32.943937
32.943938
32.943939
32.943940
32.943942
32.943943
32.943945
32.943946
32.943947
32.943949
32.943950
32.943952
32.943953
32.943954
32.943956
32.943957
32.943958
32.943958
32.943959
32.943959
32.943959
32.943959
32.943959
32.943959
32.943958
32.943958
32.943957
32.943956
32.943954
32.943953
32.943952
32.943950
32.943949
32.943947
32.943946
32.943945
32.943943
32.943942
32.943940
32.943939
32.943938
32.943937
32.943937
32.943936
32.943936
32.943936
32.943936
32.743934
32.743934
32.743934
32.743935
32.743935
32.743936
32.743937
32.743938
32.743940
32.743941
32.743943
32.743944
32.743946
32.743947
32.743949
32.743951
32.743952
32.743954
32.743955
32.743957
32.743958
32.743959
32.743960
32.743960
32.743961
32.743961
32.743961
32.743961
32.743960
32.743960
32.743959
32.743958
32.743957
32.743955
32.743954
32.743952
32.743951
32.743949
32.743947
32.743946
32.743944
32.743943
32.743941
32.743940
32.743938
32.743937
32.743936
32.743935
32.743935
32.743934
32.743934
32.743934
32.543932
32.543932
32.543932
32.543933
32.543934
32.543935
32.543936
32.543937
32.543939
32.543940
32.543942
32.543944
32.543946
32.543947
32.543949
32.543951
32.543953
32.543955
32.543956
32.543958
32.543959
32.543960
32.543961
32.543962
32.543962
32.543963
32.543963
32.543962
32.543962
32.543961
32.543960
32.543959
32.543958
32.543956
32.543955
32.543953
32.543951
32.543949
32.543947
32.543946
32.543944
32.543942
32.543940
32.543939
32.543937
32.543936
32.543935
32.543934
32.543933
32.543932
32.543932
32.543932
32.343930
32.343930
32.343930
32.343931
32.343932
32.343933
32.343934
32.343936
32.343937
32.343939
32.343941
32.343943
32.343945
32.343947
32.343950
32.343952
32.343954
32.343956
32.343958
32.343959
32.343961
32.343962
32.343963
32.343964
32.343964
32.343965
32.343965
32.343964
32.343964
32.343963
32.343962
32.343961
32.343959
32.343958
32.343956
32.343954
32.343952
32.343950
32.343947
32.343945
32.343943
32.343941
32.343939
32.343937
32.343936
32.343934
32.343933
32.343932
32.343931
32.343930
32.343930
32.343930
32.143928
32.143928
32.143928
32.143929
32.143930
32.143931
32.143932
32.143934
32.143936
32.143938
32.143940
32.143943
32.143945
32.143947
32.143950
32.143952
32.143955
32.143957
32.143959
32.143961
32.143963
32.143964
32.143965
32.143966
32.143967
32.143967
32.143967
32.143967
32.143966
32.143965
32.143964
32.143963
32.143961
32.143959
32.143957
32.143955
32.143952
32.143950
32.143947
32.143945
32.143943
32.143940
32.143938
32.143936
32.143934
32.143932
32.143931
32.143930
32.143929
32.143928
32.143928
32.143928
31.943925
31.943925
31.943926
31.943926
31.943927
31.943929
31.943930
31.943932
31.943934
31.943937
31.943939
31.943942
31.943945
31.943947
31.943950
31.943953
31.943956
31.943958
31.943961
31.943963
31.943965
31.943966
31.943968
31.943969
31.943969
31.943970
31.943970
31.943969
31.943969
31.943968
31.943966
31.943965
31.943963
31.943961
31.943958
31.943956
31.943953
31.943950
31.943947
31.943945
31.943942
31.943939
31.943937
31.943934
31.943932
31.943930
31.943929
31.943927
31.943926
31.943926
31.943925
31.943925
31.743922
31.743922
31.743923
31.743924
31.743925
31.743926
31.743928
31.743930
31.743933
31.743935
31.743938
31.743941
31.743944
31.743947
31.743951
31.743954
31.743957
31.743960
31.743962
31.743965
31.743967
31.743969
31.743970
31.743971
31.743972
31.743973
31.743973
31.743972
31.743971
31.743970
31.743969
31.743967
31.743965
31.743962
31.743960
31.743957
31.743954
31.743951
31.743947
31.743944
31.743941
31.743938
31.743935
31.743933
31.743930
31.743928
31.743926
31.743925
31.743924
31.743923
31.743922
31.743922
31.543919
31.543919
31.543919
31.543920
31.543922
31.543923
31.543925
31.543928
31.543931
31.543934
31.543937
31.543940
31.543944
31.543947
31.543951
31.543955
31.543958
31.543961
31.543964
31.543967
31.543969
31.543972
31.543973
31.543975
31.543976
31.543976
31.543976
31.543976
31.543975
31.543973
31.543972
31.543969
31.543967
31.543964
31.543961
31.543958
31.543955
31.543951
31.543947
31.543944
31.543940
31.543937
31.543934
31.543931
31.543928
31.543925
31.543923
31.543922
31.543920
31.543919
31.543919
31.543919
31.343915
31.343915
31.343916
31.343917
31.343918
31.343920
31.343923
31.343925
31.343928
31.343932
31.343936
31.343939
31.343943
31.343947
31.343952
31.343956
31.343959
31.343963
31.343966
31.343970
31.343972
31.343975
31.343977
31.343978
31.343979
31.343980
31.343980
31.343979
31.343978
31.343977
31.343975
31.343972
31.343970
31.343966
31.343963
31.343959
31.343956
31.343952
31.343947
31.343943
31.343939
31.343936
31.343932
31.343928
31.343925