# vtk DataFile Version 3.0
PRESSURE
ASCII

DATASET RECTILINEAR_GRID
DIMENSIONS  52  200  1
X_COORDINATES    52 float
0.010000
0.030000
0.050000
0.070000
0.090000
0.110000
0.130000
0.150000
0.170000
0.190000
0.210000
0.230000
0.250000
0.270000
0.290000
0.310000
0.330000
0.350000
0.370000
0.390000
0.410000
0.430000
0.450000
0.470000
0.490000
0.510000
0.530000
0.550000
0.570000
0.590000
0.610000
0.630000
0.650000
0.670000
0.690000
0.710000
0.730000
0.750000
0.770000
0.790000
0.810000
0.830000
0.850000
0.870000
0.890000
0.910000
0.930000
0.950000
0.970000
0.990000
1.010000
1.030000
Y_COORDINATES    200 float
0.010000
0.030000
0.050000
0.070000
0.090000
0.110000
0.130000
0.150000
0.170000
0.190000
0.210000
0.230000
0.250000
0.270000
0.290000
0.310000
0.330000
0.350000
0.370000
0.390000
0.410000
0.430000
0.450000
0.470000
0.490000
0.510000
0.530000
0.550000
0.570000
0.590000
0.610000
0.630000
0.650000
0.670000
0.690000
0.710000
0.730000
0.750000
0.770000
0.790000
0.810000
0.830000
0.850000
0.870000
0.890000
0.910000
0.930000
0.950000
0.970000
0.990000
1.010000
1.030000
1.050000
1.070000
1.090000
1.110000
1.130000
1.150000
1.170000
1.190000
1.210000
1.230000
1.250000
1.270000
1.290000
1.310000
1.330000
1.350000
1.370000
1.390000
1.410000
1.430000
1.450000
1.470000
1.490000
1.510000
1.530000
1.550000
1.570000
1.590000
1.610000
1.630000
1.650000
1.670000
1.690000
1.710000
1.730000
1.750000
1.770000
1.790000
1.810000
1.830000
1.850000
1.870000
1.890000
1.910000
1.930000
1.950000
1.970000
1.990000
2.010000
2.030000
2.050000
2.070000
2.090000
2.110000
2.130000
2.150000
2.170000
2.190000
2.210000
2.230000
2.250000
2.270000
2.290000
2.310000
2.330000
2.350000
2.370000
2.390000
2.410000
2.430000
2.450000
2.470000
2.490000
2.510000
2.530000
2.550000
2.570000
2.590000
2.610000
2.630000
2.650000
2.670000
2.690000
2.710000
2.730000
2.750000
2.770000
2.790000
2.810000
2.830000
2.850000
2.870000
2.890000
2.910000
2.930000
2.950000
2.970000
2.990000
3.010000
3.030000
3.050000
3.070000
3.090000
3.110000
3.130000
3.150000
3.170000
3.190000
3.210000
3.230000
3.250000
3.270000
3.290000
3.310000
3.330000
3.350000
3.370000
3.390000
3.410000
3.430000
3.450000
3.470000
3.490000
3.510000
3.530000
3.550000
3.570000
3.590000
3.610000
3.630000
3.650000
3.670000
3.690000
3.710000
3.730000
3.750000
3.770000
3.790000
3.810000
3.830000
3.850000
3.870000
3.890000
3.910000
3.930000
3.950000
3.970000
3.990000
Z_COORDINATES    1 float
0.000000
POINT_DATA 10400
SCALARS PRESSURE float
LOOKUP_TABLE default
41.688173
41.688418
41.688414
41.688404
41.688387
41.688368
41.688357
41.688337
41.688322
41.688311
41.688304
41.688299
41.688296
41.688293
41.688292
41.688290
41.688290
41.688290
41.688289
41.688289
41.688291
41.688289
41.688292
41.688293
41.688293
41.688293
41.688293
41.688293
41.688293
41.688292
41.688289
41.688291
41.688289
41.688289
41.688290
41.688290
41.688290
41.688292
41.688293
41.688296
41.688299
41.688304
41.688311
41.688322
41.688337
41.688357
41.688368
41.688387
41.688404
41.688414
41.688418
41.688173
41.530203
41.530008
41.530006
41.530000
41.529992
41.529981
41.529965
41.529956
41.529946
41.529939
41.529934
41.529930
41.529927
41.529925
41.529925
41.529921
41.529922
41.529923
41.529921
41.529920
41.529922
41.529924
41.529922
41.529922
41.529924
41.529925
41.529925
41.529924
41.529922
41.529922
41.529924
41.529922
41.529920
41.529921
41.529923
41.529922
41.529921
41.529925
41.529925
41.529927
41.529930
41.529934
41.529939
41.529946
41.529956
41.529965
41.529981
41.529992
41.530000
41.530006
41.530008
41.530203
41.339698
41.339660
41.339660
41.339659
41.339659
41.339659
41.339658
41.339656
41.339657
41.339658
41.339657
41.339656
41.339656
41.339654
41.339650
41.339651
41.339647
41.339642
41.339643
41.339641
41.339637
41.339636
41.339635
41.339635
41.339635
41.339635
41.339635
41.339635
41.339635
41.339635
41.339636
41.339637
41.339641
41.339643
41.339642
41.339647
41.339651
41.339650
41.339654
41.339656
41.339656
41.339657
41.339658
41.339657
41.339656
41.339658
41.339659
41.339659
41.339659
41.339660
41.339660
41.339698
41.140787
41.140778
41.140778
41.140778
41.140782
41.140783
41.140782
41.140785
41.140786
41.140785
41.140784
41.140783
41.140781
41.140780
41.140780
41.140779
41.140779
41.140779
41.140779
41.140778
41.140778
41.140779
41.140778
41.140778
41.140777
41.140777
41.140777
41.140777
41.140778
41.140778
41.140779
41.140778
41.140778
41.140779
41.140779
41.140779
41.140779
41.140780
41.140780
41.140781
41.140783
41.140784
41.140785
41.140786
41.140785
41.140782
41.140783
41.140782
41.140778
41.140778
41.140778
41.140787
40.940597
40.940595
40.940597
40.940599
40.940604
40.940610
40.940616
40.940621
40.940624
40.940625
40.940625
40.940625
40.940624
40.940623
40.940623
40.940623
40.940623
40.940623
40.940623
40.940622
40.940622
40.940622
40.940622
40.940621
40.940621
40.940621
40.940621
40.940621
40.940621
40.940622
40.940622
40.940622
40.940622
40.940623
40.940623
40.940623
40.940623
40.940623
40.940623
40.940624
40.940625
40.940625
40.940625
40.940624
40.940621
40.940616
40.940610
40.940604
40.940599
40.940597
40.940595
40.940597
40.740427
40.740426
40.740428
40.740431
40.740436
40.740441
40.740447
40.740452
40.740456
40.740458
40.740459
40.740459
40.740459
40.740459
40.740459
40.740459
40.740459
40.740459
40.740459
40.740458
40.740458
40.740458
40.740458
40.740457
40.740457
40.740457
40.740457
40.740457
40.740457
40.740458
40.740458
40.740458
40.740458
40.740459
40.740459
40.740459
40.740459
40.740459
40.740459
40.740459
40.740459
40.740459
40.740458
40.740456
40.740452
40.740447
40.740441
40.740436
40.740431
40.740428
40.740426
40.740427
40.540357
40.540357
40.540358
40.540361
40.540365
40.540369
40.540374
40.540378
40.540382
40.540384
40.540385
40.540386
40.540387
40.540387
40.540387
40.540387
40.540387
40.540387
40.540387
40.540387
40.540386
40.540386
40.540386
40.540386
40.540386
40.540385
40.540385
40.540386
40.540386
40.540386
40.540386
40.540386
40.540387
40.540387
40.540387
40.540387
40.540387
40.540387
40.540387
40.540387
40.540386
40.540385
40.540384
40.540382
40.540378
40.540374
40.540369
40.540365
40.540361
40.540358
40.540357
40.540357
40.340338
40.340338
40.340339
40.340341
40.340344
40.340348
40.340351
40.340355
40.340358
40.340360
40.340361
40.340362
40.340363
40.340364
40.340364
40.340364
40.340364
40.340364
40.340364
40.340364
40.340364
40.340364
40.340364
40.340363
40.340363
40.340363
40.340363
40.340363
40.340363
40.340364
40.340364
40.340364
40.340364
40.340364
40.340364
40.340364
40.340364
40.340364
40.340364
40.340363
40.340362
40.340361
40.340360
40.340358
40.340355
40.340351
40.340348
40.340344
40.340341
40.340339
40.340338
40.340338
40.140337
40.140337
40.140338
40.140340
40.140342
40.140345
40.140347
40.140350
40.140352
40.140354
40.140356
40.140357
40.140358
40.140358
40.140359
40.140359
40.140359
40.140359
40.140359
40.140359
40.140359
40.140359
40.140359
40.140359
40.140359
40.140359
40.140359
40.140359
40.140359
40.140359
40.140359
40.140359
40.140359
40.140359
40.140359
40.140359
40.140359
40.140359
40.140358
40.140358
40.140357
40.140356
40.140354
40.140352
40.140350
40.140347
40.140345
40.140342
40.140340
40.140338
40.140337
40.140337
39.940341
39.940341
39.940341
39.940342
39.940344
39.940346
39.940348
39.940351
39.940352
39.940354
39.940356
39.940357
39.940357
39.940358
39.940358
39.940359
39.940359
39.940359
39.940359
39.940359
39.940359
39.940359
39.940359
39.940359
39.940359
39.940359
39.940359
39.940359
39.940359
39.940359
39.940359
39.940359
39.940359
39.940359
39.940359
39.940359
39.940359
39.940358
39.940358
39.940357
39.940357
39.940356
39.940354
39.940352
39.940351
39.940348
39.940346
39.940344
39.940342
39.940341
39.940341
39.940341
39.740344
39.740344
39.740344
39.740345
39.740347
39.740348
39.740350
39.740352
39.740353
39.740355
39.740356
39.740357
39.740358
39.740358
39.740359
39.740359
39.740360
39.740360
39.740360
39.740360
39.740360
39.740360
39.740360
39.740360
39.740360
39.740360
39.740360
39.740360
39.740360
39.740360
39.740360
39.740360
39.740360
39.740360
39.740360
39.740360
39.740359
39.740359
39.740358
39.740358
39.740357
39.740356
39.740355
39.740353
39.740352
39.740350
39.740348
39.740347
39.740345
39.740344
39.740344
39.740344
39.540347
39.540347
39.540347
39.540348
39.540349
39.540350
39.540351
39.540353
39.540354
39.540355
39.540356
39.540357
39.540358
39.540359
39.540359
39.540360
39.540360
39.540360
39.540360
39.540360
39.540360
39.540360
39.540361
39.540361
39.540361
39.540361
39.540361
39.540361
39.540361
39.540361
39.540360
39.540360
39.540360
39.540360
39.540360
39.540360
39.540360
39.540359
39.540359
39.540358
39.540357
39.540356
39.540355
39.540354
39.540353
39.540351
39.540350
39.540349
39.540348
39.540347
39.540347
39.540347
39.340349
39.340349
39.340349
39.340349
39.340350
39.340351
39.340352
39.340353
39.340354
39.340355
39.340356
39.340357
39.340358
39.340359
39.340359
39.340359
39.340360
39.340360
39.340360
39.340360
39.340361
39.340361
39.340361
39.340361
39.340361
39.340361
39.340361
39.340361
39.340361
39.340361
39.340361
39.340361
39.340360
39.340360
39.340360
39.340360
39.340359
39.340359
39.340359
39.340358
39.340357
39.340356
39.340355
39.340354
39.340353
39.340352
39.340351
39.340350
39.340349
39.340349
39.340349
39.340349
39.140350
39.140350
39.140350
39.140351
39.140351
39.140352
39.140353
39.140354
39.140355
39.140356
39.140356
39.140357
39.140358
39.140358
39.140359
39.140359
39.140360
39.140360
39.140360
39.140360
39.140360
39.140360
39.140361
39.140361
39.140361
39.140361
39.140361
39.140361
39.140361
39.140361
39.140360
39.140360
39.140360
39.140360
39.140360
39.140360
39.140359
39.140359
39.140358
39.140358
39.140357
39.140356
39.140356
39.140355
39.140354
39.140353
39.140352
39.140351
39.140351
39.140350
39.140350
39.140350
38.940351
38.940351
38.940351
38.940352
38.940352
38.940353
38.940353
38.940354
38.940355
38.940356
38.940356
38.940357
38.940358
38.940358
38.940359
38.940359
38.940359
38.940360
38.940360
38.940360
38.940360
38.940360
38.940360
38.940360
38.940360
38.940361
38.940361
38.940360
38.940360
38.940360
38.940360
38.940360
38.940360
38.940360
38.940360
38.940359
38.940359
38.940359
38.940358
38.940358
38.940357
38.940356
38.940356
38.940355
38.940354
38.940353
38.940353
38.940352
38.940352
38.940351
38.940351
38.940351
38.740352
38.740352
38.740352
38.740352
38.740353
38.740353
38.740354
38.740354
38.740355
38.740356
38.740356
38.740357
38.740357
38.740358
38.740358
38.740359
38.740359
38.740359
38.740360
38.740360
38.740360
38.740360
38.740360
38.740360
38.740360
38.740360
38.740360
38.740360
38.740360
38.740360
38.740360
38.740360
38.740360
38.740360
38.740359
38.740359
38.740359
38.740358
38.740358
38.740357
38.740357
38.740356
38.740356
38.740355
38.740354
38.740354
38.740353
38.740353
38.740352
38.740352
38.740352
38.740352
38.540353
38.540353
38.540353
38.540353
38.540353
38.540354
38.540354
38.540355
38.540355
38.540356
38.540356
38.540357
38.540357
38.540358
38.540358
38.540359
38.540359
38.540359
38.540359
38.540360
38.540360
38.540360
38.540360
38.540360
38.540360
38.540360
38.540360
38.540360
38.540360
38.540360
38.540360
38.540360
38.540360
38.540359
38.540359
38.540359
38.540359
38.540358
38.540358
38.540357
38.540357
38.540356
38.540356
38.540355
38.540355
38.540354
38.540354
38.540353
38.540353
38.540353
38.540353
38.540353
38.340353
38.340353
38.340353
38.340353
38.340354
38.340354
38.340354
38.340355
38.340355
38.340356
38.340356
38.340357
38.340357
38.340358
38.340358
38.340358
38.340359
38.340359
38.340359
38.340359
38.340360
38.340360
38.340360
38.340360
38.340360
38.340360
38.340360
38.340360
38.340360
38.340360
38.340360
38.340360
38.340359
38.340359
38.340359
38.340359
38.340358
38.340358
38.340358
38.340357
38.340357
38.340356
38.340356
38.340355
38.340355
38.340354
38.340354
38.340354
38.340353
38.340353
38.340353
38.340353
38.140354
38.140354
38.140354
38.140354
38.140354
38.140354
38.140355
38.140355
38.140355
38.140356
38.140356
38.140357
38.140357
38.140358
38.140358
38.140358
38.140358
38.140359
38.140359
38.140359
38.140359
38.140359
38.140360
38.140360
38.140360
38.140360
38.140360
38.140360
38.140360
38.140360
38.140359
38.140359
38.140359
38.140359
38.140359
38.140358
38.140358
38.140358
38.140358
38.140357
38.140357
38.140356
38.140356
38.140355
38.140355
38.140355
38.140354
38.140354
38.140354
38.140354
38.140354
38.140354
37.940354
37.940354
37.940354
37.940354
37.940354
37.940355
37.940355
37.940355
37.940356
37.940356
37.940356
37.940357
37.940357
37.940357
37.940358
37.940358
37.940358
37.940359
37.940359
37.940359
37.940359
37.940359
37.940359
37.940360
37.940360
37.940360
37.940360
37.940360
37.940360
37.940359
37.940359
37.940359
37.940359
37.940359
37.940359
37.940358
37.940358
37.940358
37.940357
37.940357
37.940357
37.940356
37.940356
37.940356
37.940355
37.940355
37.940355
37.940354
37.940354
37.940354
37.940354
37.940354
37.740354
37.740354
37.740354
37.740354
37.740355
37.740355
37.740355
37.740355
37.740356
37.740356
37.740356
37.740357
37.740357
37.740357
37.740358
37.740358
37.740358
37.740358
37.740359
37.740359
37.740359
37.740359
37.740359
37.740359
37.740359
37.740360
37.740360
37.740359
37.740359
37.740359
37.740359
37.740359
37.740359
37.740359
37.740358
37.740358
37.740358
37.740358
37.740357
37.740357
37.740357
37.740356
37.740356
37.740356
37.740355
37.740355
37.740355
37.740355
37.740354
37.740354
37.740354
37.740354
37.540354
37.540354
37.540354
37.540355
37.540355
37.540355
37.540355
37.540355
37.540356
37.540356
37.540356
37.540357
37.540357
37.540357
37.540358
37.540358
37.540358
37.540358
37.540359
37.540359
37.540359
37.540359
37.540359
37.540359
37.540359
37.540359
37.540359
37.540359
37.540359
37.540359
37.540359
37.540359
37.540359
37.540359
37.540358
37.540358
37.540358
37.540358
37.540357
37.540357
37.540357
37.540356
37.540356
37.540356
37.540355
37.540355
37.540355
37.540355
37.540355
37.540354
37.540354
37.540354
37.340354
37.340354
37.340355
37.340355
37.340355
37.340355
37.340355
37.340355
37.340356
37.340356
37.340356
37.340357
37.340357
37.340357
37.340358
37.340358
37.340358
37.340358
37.340359
37.340359
37.340359
37.340359
37.340359
37.340359
37.340359
37.340359
37.340359
37.340359
37.340359
37.340359
37.340359
37.340359
37.340359
37.340359
37.340358
37.340358
37.340358
37.340358
37.340357
37.340357
37.340357
37.340356
37.340356
37.340356
37.340355
37.340355
37.340355
37.340355
37.340355
37.340355
37.340354
37.340354
37.140355
37.140355
37.140355
37.140355
37.140355
37.140355
37.140355
37.140355
37.140356
37.140356
37.140356
37.140357
37.140357
37.140357
37.140358
37.140358
37.140358
37.140358
37.140359
37.140359
37.140359
37.140359
37.140359
37.140359
37.140359
37.140359
37.140359
37.140359
37.140359
37.140359
37.140359
37.140359
37.140359
37.140359
37.140358
37.140358
37.140358
37.140358
37.140357
37.140357
37.140357
37.140356
37.140356
37.140356
37.140355
37.140355
37.140355
37.140355
37.140355
37.140355
37.140355
37.140355
36.940355
36.940355
36.940355
36.940355
36.940355
36.940355
36.940355
36.940355
36.940356
36.940356
36.940356
36.940357
36.940357
36.940357
36.940357
36.940358
36.940358
36.940358
36.940358
36.940359
36.940359
36.940359
36.940359
36.940359
36.940359
36.940359
36.940359
36.940359
36.940359
36.940359
36.940359
36.940359
36.940359
36.940358
36.940358
36.940358
36.940358
36.940357
36.940357
36.940357
36.940357
36.940356
36.940356
36.940356
36.940355
36.940355
36.940355
36.940355
36.940355
36.940355
36.940355
36.940355
36.740355
36.740355
36.740355
36.740355
36.740355
36.740355
36.740355
36.740355
36.740356
36.740356
36.740356
36.740357
36.740357
36.740357
36.740357
36.740358
36.740358
36.740358
36.740358
36.740359
36.740359
36.740359
36.740359
36.740359
36.740359
36.740359
36.740359
36.740359
36.740359
36.740359
36.740359
36.740359
36.740359
36.740358
36.740358
36.740358
36.740358
36.740357
36.740357
36.740357
36.740357
36.740356
36.740356
36.740356
36.740355
36.740355
36.740355
36.740355
36.740355
36.740355
36.740355
36.740355
36.540355
36.540355
36.540355
36.540355
36.540355
36.540355
36.540355
36.540355
36.540356
36.540356
36.540356
36.540357
36.540357
36.540357
36.540357
36.540358
36.540358
36.540358
36.540359
36.540359
36.540359
36.540359
36.540359
36.540359
36.540359
36.540359
36.540359
36.540359
36.540359
36.540359
36.540359
36.540359
36.540359
36.540359
36.540358
36.540358
36.540358
36.540357
36.540357
36.540357
36.540357
36.540356
36.540356
36.540356
36.540355
36.540355
36.540355
36.540355
36.540355
36.540355
36.540355
36.540355
36.340355
36.340355
36.340355
36.340355
36.340355
36.340355
36.340355
36.340355
36.340356
36.340356
36.340356
36.340357
36.340357
36.340357
36.340357
36.340358
36.340358
36.340358
36.340359
36.340359
36.340359
36.340359
36.340359
36.340359
36.340359
36.340360
36.340360
36.340359
36.340359
36.340359
36.340359
36.340359
36.340359
36.340359
36.340358
36.340358
36.340358
36.340357
36.340357
36.340357
36.340357
36.340356
36.340356
36.340356
36.340355
36.340355
36.340355
36.340355
36.340355
36.340355
36.340355
36.340355
36.140354
36.140354
36.140354
36.140355
36.140355
36.140355
36.140355
36.140355
36.140356
36.140356
36.140356
36.140356
36.140357
36.140357
36.140357
36.140358
36.140358
36.140358
36.140359
36.140359
36.140359
36.140359
36.140359
36.140360
36.140360
36.140360
36.140360
36.140360
36.140360
36.140359
36.140359
36.140359
36.140359
36.140359
36.140358
36.140358
36.140358
36.140357
36.140357
36.140357
36.140356
36.140356
36.140356
36.140356
36.140355
36.140355
36.140355
36.140355
36.140355
36.140354
36.140354
36.140354
35.940354
35.940354
35.940354
35.940354
35.940355
35.940355
35.940355
35.940355
35.940355
35.940356
35.940356
35.940356
35.940357
35.940357
35.940357
35.940358
35.940358
35.940358
35.940359
35.940359
35.940359
35.940359
35.940360
35.940360
35.940360
35.940360
35.940360
35.940360
35.940360
35.940360
35.940359
35.940359
35.940359
35.940359
35.940358
35.940358
35.940358
35.940357
35.940357
35.940357
35.940356
35.940356
35.940356
35.940355
35.940355
35.940355
35.940355
35.940355
35.940354
35.940354
35.940354
35.940354
35.740354
35.740354
35.740354
35.740354
35.740354
35.740355
35.740355
35.740355
35.740355
35.740356
35.740356
35.740356
35.740357
35.740357
35.740357
35.740358
35.740358
35.740359
35.740359
35.740359
35.740359
35.740360
35.740360
35.740360
35.740360
35.740360
35.740360
35.740360
35.740360
35.740360
35.740360
35.740359
35.740359
35.740359
35.740359
35.740358
35.740358
35.740357
35.740357
35.740357
35.740356
35.740356
35.740356
35.740355
35.740355
35.740355
35.740355
35.740354
35.740354
35.740354
35.740354
35.740354
35.540354
35.540354
35.540354
35.540354
35.540354
35.540354
35.540355
35.540355
35.540355
35.540356
35.540356
35.540356
35.540357
35.540357
35.540358
35.540358
35.540358
35.540359
35.540359
35.540359
35.540360
35.540360
35.540360
35.540360
35.540360
35.540360
35.540360
35.540360
35.540360
35.540360
35.540360
35.540360
35.540359
35.540359
35.540359
35.540358
35.540358
35.540358
35.540357
35.540357
35.540356
35.540356
35.540356
35.540355
35.540355
35.540355
35.540354
35.540354
35.540354
35.540354
35.540354
35.540354
35.340354
35.340354
35.340354
35.340354
35.340354
35.340354
35.340354
35.340355
35.340355
35.340355
35.340356
35.340356
35.340357
35.340357
35.340358
35.340358
35.340358
35.340359
35.340359
35.340360
35.340360
35.340360
35.340360
35.340360
35.340361
35.340361
35.340361
35.340361
35.340360
35.340360
35.340360
35.340360
35.340360
35.340359
35.340359
35.340358
35.340358
35.340358
35.340357
35.340357
35.340356
35.340356
35.340355
35.340355
35.340355
35.340354
35.340354
35.340354
35.340354
35.340354
35.340354
35.340354
35.140353
35.140353
35.140353
35.140353
35.140354
35.140354
35.140354
35.140354
35.140355
35.140355
35.140356
35.140356
35.140357
35.140357
35.140358
35.140358
35.140359
35.140359
35.140359
35.140360
35.140360
35.140360
35.140361
35.140361
35.140361
35.140361
35.140361
35.140361
35.140361
35.140361
35.140360
35.140360
35.140360
35.140359
35.140359
35.140359
35.140358
35.140358
35.140357
35.140357
35.140356
35.140356
35.140355
35.140355
35.140354
35.140354
35.140354
35.140354
35.140353
35.140353
35.140353
35.140353
34.940353
34.940353
34.940353
34.940353
34.940353
34.940353
34.940354
34.940354
34.940355
34.940355
34.940355
34.940356
34.940357
34.940357
34.940358
34.940358
34.940359
34.940359
34.940360
34.940360
34.940360
34.940361
34.940361
34.940361
34.940361
34.940361
34.940361
34.940361
34.940361
34.940361
34.940361
34.940360
34.940360
34.940360
34.940359
34.940359
34.940358
34.940358
34.940357
34.940357
34.940356
34.940355
34.940355
34.940355
34.940354
34.940354
34.940353
34.940353
34.940353
34.940353
34.940353
34.940353
34.740352
34.740352
34.740352
34.740352
34.740353
34.740353
34.740353
34.740354
34.740354
34.740355
34.740355
34.740356
34.740356
34.740357
34.740358
34.740358
34.740359
34.740359
34.740360
34.740360
34.740361
34.740361
34.740361
34.740362
34.740362
34.740362
34.740362
34.740362
34.740362
34.740361
34.740361
34.740361
34.740360
34.740360
34.740359
34.740359
34.740358
34.740358
34.740357
34.740356
34.740356
34.740355
34.740355
34.740354
34.740354
34.740353
34.740353
34.740353
34.740352
34.740352
34.740352
34.740352
34.540352
34.540352
34.540352
34.540352
34.540352
34.540353
34.540353
34.540353
34.540354
34.540354
34.540355
34.540356
34.540356
34.540357
34.540358
34.540358
34.540359
34.540360
34.540360
34.540361
34.540361
34.540362
34.540362
34.540362
34.540362
34.540362
34.540362
34.540362
34.540362
34.540362
34.540362
34.540361
34.540361
34.540360
34.540360
34.540359
34.540358
34.540358
34.540357
34.540356
34.540356
34.540355
34.540354
34.540354
34.540353
34.540353
34.540353
34.540352
34.540352
34.540352
34.540352
34.540352
34.340351
34.340351
34.340351
34.340351
34.340352
34.340352
34.340352
34.340353
34.340354
34.340354
34.340355
34.340356
34.340356
34.340357
34.340358
34.340359
34.340359
34.340360
34.340361
34.340361
34.340362
34.340362
34.340363
34.340363
34.340363
34.340363
34.340363
34.340363
34.340363
34.340363
34.340362
34.340362
34.340361
34.340361
34.340360
34.340359
34.340359
34.340358
34.340357
34.340356
34.340356
34.340355
34.340354
34.340354
34.340353
34.340352
34.340352
34.340352
34.340351
34.340351
34.340351
34.340351
34.140350
34.140350
34.140350
34.140351
34.140351
34.140351
34.140352
34.140352
34.140353
34.140354
34.140355
34.140355
34.140356
34.140357
34.140358
34.140359
34.140360
34.140360
34.140361
34.140362
34.140362
34.140363
34.140363
34.140364
34.140364
34.140364
34.140364
34.140364
34.140364
34.140363
34.140363
34.140362
34.140362
34.140361
34.140360
34.140360
34.140359
34.140358
34.140357
34.140356
34.140355
34.140355
34.140354
34.140353
34.140352
34.140352
34.140351
34.140351
34.140351
34.140350
34.140350
34.140350
33.940349
33.940349
33.940350
33.940350
33.940350
33.940351
33.940351
33.940352
33.940353
33.940353
33.940354
33.940355
33.940356
33.940357
33.940358
33.940359
33.940360
33.940361
33.940362
33.940362
33.940363
33.940364
33.940364
33.940364
33.940365
33.940365
33.940365
33.940365
33.940364
33.940364
33.940364
33.940363
33.940362
33.940362
33.940361
33.940360
33.940359
33.940358
33.940357
33.940356
33.940355
33.940354
33.940353
33.940353
33.940352
33.940351
33.940351
33.940350
33.940350
33.940350
33.940349
33.940349
33.740348
33.740348
33.740349
33.740349
33.740349
33.740350
33.740350
33.740351
33.740352
33.740353
33.740354
33.740355
33.740356
33.740357
33.740358
33.740359
33.740360
33.740361
33.740362
33.740363
33.740364
33.740364
33.740365
33.740365
33.740366
33.740366
33.740366
33.740366
33.740365
33.740365
33.740364
33.740364
33.740363
33.740362
33.740361
33.740360
33.740359
33.740358
33.740357
33.740356
33.740355
33.740354
33.740353
33.740352
33.740351
33.740350
33.740350
33.740349
33.740349
33.740349
33.740348
33.740348
33.540347
33.540347
33.540348
33.540348
33.540348
33.540349
33.540350
33.540350
33.540351
33.540352
33.540353
33.540355
33.540356
33.540357
33.540358
33.540360
33.540361
33.540362
33.540363
33.540364
33.540365
33.540365
33.540366
33.540366
33.540367
33.540367
33.540367
33.540367
33.540366
33.540366
33.540365
33.540365
33.540364
33.540363
33.540362
33.540361
33.540360
33.540358
33.540357
33.540356
33.540355
33.540353
33.540352
33.540351
33.540350
33.540350
33.540349
33.540348
33.540348
33.540348
33.540347
33.540347
33.340346
33.340346
33.340346
33.340347
33.340347
33.340348
33.340349
33.340350
33.340351
33.340352
33.340353
33.340354
33.340356
33.340357
33.340358
33.340360
33.340361
33.340362
33.340364
33.340365
33.340366
33.340366
33.340367
33.340368
33.340368
33.340368
33.340368
33.340368
33.340368
33.340367
33.340366
33.340366
33.340365
33.340364
33.340362
33.340361
33.340360
33.340358
33.340357
33.340356
33.340354
33.340353
33.340352
33.340351
33.340350
33.340349
33.340348
33.340347
33.340347
33.340346
33.340346
33.340346
33.140345
33.140345
33.140345
33.140345
33.140346
33.140347
33.140347
33.140349
33.140350
33.140351
33.140353
33.140354
33.140356
33.140357
33.140359
33.140360
33.140362
33.140363
33.140364
33.140366
33.140367
33.140368
33.140368
33.140369
33.140369
33.140370
33.140370
33.140369
33.140369
33.140368
33.140368
33.140367
33.140366
33.140364
33.140363
33.140362
33.140360
33.140359
33.140357
33.140356
33.140354
33.140353
33.140351
33.140350
33.140349
33.140347
33.140347
33.140346
33.140345
33.140345
33.140345
33.140345
32.940343
32.940343
32.940343
32.940344
32.940344
32.940345
32.940346
32.940347
32.940349
32.940350
32.940352
32.940354
32.940355
32.940357
32.940359
32.940361
32.940362
32.940364
32.940365
32.940367
32.940368
32.940369
32.940370
32.940370
32.940371
32.940371
32.940371
32.940371
32.940370
32.940370
32.940369
32.940368
32.940367
32.940365
32.940364
32.940362
32.940361
32.940359
32.940357
32.940355
32.940354
32.940352
32.940350
32.940349
32.940347
32.940346
32.940345
32.940344
32.940344
32.940343
32.940343
32.940343
32.740341
32.740341
32.740341
32.740342
32.740343
32.740344
32.740345
32.740346
32.740348
32.740349
32.740351
32.740353
32.740355
32.740357
32.740359
32.740361
32.740363
32.740365
32.740366
32.740368
32.740369
32.740371
32.740372
32.740372
32.740373
32.740373
32.740373
32.740373
32.740372
32.740372
32.740371
32.740369
32.740368
32.740366
32.740365
32.740363
32.740361
32.740359
32.740357
32.740355
32.740353
32.740351
32.740349
32.740348
32.740346
32.740345
32.740344
32.740343
32.740342
32.740341
32.740341
32.740341
32.540339
32.540339
32.540339
32.540340
32.540341
32.540342
32.540343
32.540345
32.540346
32.540348
32.540350
32.540353
32.540355
32.540357
32.540359
32.540362
32.540364
32.540366
32.540368
32.540369
32.540371
32.540372
32.540373
32.540374
32.540375
32.540375
32.540375
32.540375
32.540374
32.540373
32.540372
32.540371
32.540369
32.540368
32.540366
32.540364
32.540362
32.540359
32.540357
32.540355
32.540353
32.540350
32.540348
32.540346
32.540345
32.540343
32.540342
32.540341
32.540340
32.540339
32.540339
32.540339
32.340337
32.340337
32.340337
32.340338
32.340339
32.340340
32.340341
32.340343
32.340345
32.340347
32.340350
32.340352
32.340355
32.340357
32.340360
32.340362
32.340365
32.340367
32.340369
32.340371
32.340373
32.340374
32.340376
32.340377
32.340377
32.340377
32.340377
32.340377
32.340377
32.340376
32.340374
32.340373
32.340371
32.340369
32.340367
32.340365
32.340362
32.340360
32.340357
32.340355
32.340352
32.340350
32.340347
32.340345
32.340343
32.340341
32.340340
32.340339
32.340338
32.340337
32.340337
32.340337
32.140334
32.140334
32.140334
32.140335
32.140336
32.140338
32.140339
32.140341
32.140343
32.140346
32.140349
32.140351
32.140354
32.140357
32.140360
32.140363
32.140366
32.140368
32.140371
32.140373
32.140375
32.140377
32.140378
32.140379
32.140380
32.140380
32.140380
32.140380
32.140379
32.140378
32.140377
32.140375
32.140373
32.140371
32.140368
32.140366
32.140363
32.140360
32.140357
32.140354
32.140351
32.140349
32.140346
32.140343
32.140341
32.140339
32.140338
32.140336
32.140335
32.140334
32.140334
32.140334
31.940331
31.940331
31.940331
31.940332
31.940333
31.940335
31.940337
31.940339
31.940342
31.940344
31.940347
31.940351
31.940354
31.940357
31.940360
31.940364
31.940367
31.940370
31.940372
31.940375
31.940377
31.940379
31.940381
31.940382
31.940383
31.940383
31.940383
31.940383
31.940382
31.940381
31.940379
31.940377
31.940375
31.940372
31.940370
31.940367
31.940364
31.940360
31.940357
31.940354
31.940351
31.940347
31.940344
31.940342
31.940339
31.940337
31.940335
31.940333
31.940332
31.940331
31.940331
31.940331
31.740327
31.740327
31.740328
31.740329
31.740330
31.740332
31.740334
31.740337
31.740340
31.740343
31.740346
31.740350
31.740353
31.740357
31.740361
31.740364
31.740368
31.740371
31.740375
31.740377
31.740380
31.740382
31.740384
31.740385
31.740386
31.740387
31.740387
31.740386
31.740385
31.740384
31.740382
31.740380
31.740377
31.740375
31.740371
31.740368
31.740364
31.740361
31.740357
31.740353
31.740350
31.740346
31.740343
31.740340
31.740337
31.740334
31.740332
31.740330
31.740329
31.740328
31.740327
31.740327
31.540324
31.540324
31.540324
31.540325
31.540327
31.540329
31.540331
31.540334
31.540337
31.540341
31.540345
31.540349
31.540353
31.540357
31.540361
31.540365
31.540369
31.540373
31.540377
31.540380
31.540383
31.540385
31.540388
31.540389
31.540390
31.540391
31.540391
31.540390
31.540389
31.540388
31.540385
31.540383
31.540380
31.540377
31.540373
31.540369
31.540365
31.540361
31.540357
31.540353
31.540349
31.540345
31.540341
31.540337
31.540334
31.540331
31.540329
31.540327
31.540325
31.540324
31.540324
31.540324
31.340319
31.340319
31.340320
31.340321
31.340323
31.340325
31.340328
31.340331
31.340335
31.340339
31.340343
31.340348
31.340352
31.340357
31.340362
31.340367
31.340371
31.340375
31.340379
31.340383
31.340386
31.340389
31.340392
31.340393
31.340395
31.340395
31.340395
31.340395
31.340393
31.340392
31.340389
31.340386
31.340383
31.340379
31.340375
31.340371
31.340367
31.340362
31.340357
31.340352
31.340348
31.340343
31.340339
31.340335
31.340331