# vtk DataFile Version 3.0

ASCII
DATASET UNSTRUCTURED_GRID
POINTS 0 double
CELLS 0 0
CELL_TYPES 0
CELL_DATA 0
SCALARS  double
LOOKUP_TABLE default
