# vtk DataFile Version 3.0
PRESSURE
ASCII

DATASET RECTILINEAR_GRID
DIMENSIONS  52  200  1
X_COORDINATES    52 float
0.010000
0.030000
0.050000
0.070000
0.090000
0.110000
0.130000
0.150000
0.170000
0.190000
0.210000
0.230000
0.250000
0.270000
0.290000
0.310000
0.330000
0.350000
0.370000
0.390000
0.410000
0.430000
0.450000
0.470000
0.490000
0.510000
0.530000
0.550000
0.570000
0.590000
0.610000
0.630000
0.650000
0.670000
0.690000
0.710000
0.730000
0.750000
0.770000
0.790000
0.810000
0.830000
0.850000
0.870000
0.890000
0.910000
0.930000
0.950000
0.970000
0.990000
1.010000
1.030000
Y_COORDINATES    200 float
0.010000
0.030000
0.050000
0.070000
0.090000
0.110000
0.130000
0.150000
0.170000
0.190000
0.210000
0.230000
0.250000
0.270000
0.290000
0.310000
0.330000
0.350000
0.370000
0.390000
0.410000
0.430000
0.450000
0.470000
0.490000
0.510000
0.530000
0.550000
0.570000
0.590000
0.610000
0.630000
0.650000
0.670000
0.690000
0.710000
0.730000
0.750000
0.770000
0.790000
0.810000
0.830000
0.850000
0.870000
0.890000
0.910000
0.930000
0.950000
0.970000
0.990000
1.010000
1.030000
1.050000
1.070000
1.090000
1.110000
1.130000
1.150000
1.170000
1.190000
1.210000
1.230000
1.250000
1.270000
1.290000
1.310000
1.330000
1.350000
1.370000
1.390000
1.410000
1.430000
1.450000
1.470000
1.490000
1.510000
1.530000
1.550000
1.570000
1.590000
1.610000
1.630000
1.650000
1.670000
1.690000
1.710000
1.730000
1.750000
1.770000
1.790000
1.810000
1.830000
1.850000
1.870000
1.890000
1.910000
1.930000
1.950000
1.970000
1.990000
2.010000
2.030000
2.050000
2.070000
2.090000
2.110000
2.130000
2.150000
2.170000
2.190000
2.210000
2.230000
2.250000
2.270000
2.290000
2.310000
2.330000
2.350000
2.370000
2.390000
2.410000
2.430000
2.450000
2.470000
2.490000
2.510000
2.530000
2.550000
2.570000
2.590000
2.610000
2.630000
2.650000
2.670000
2.690000
2.710000
2.730000
2.750000
2.770000
2.790000
2.810000
2.830000
2.850000
2.870000
2.890000
2.910000
2.930000
2.950000
2.970000
2.990000
3.010000
3.030000
3.050000
3.070000
3.090000
3.110000
3.130000
3.150000
3.170000
3.190000
3.210000
3.230000
3.250000
3.270000
3.290000
3.310000
3.330000
3.350000
3.370000
3.390000
3.410000
3.430000
3.450000
3.470000
3.490000
3.510000
3.530000
3.550000
3.570000
3.590000
3.610000
3.630000
3.650000
3.670000
3.690000
3.710000
3.730000
3.750000
3.770000
3.790000
3.810000
3.830000
3.850000
3.870000
3.890000
3.910000
3.930000
3.950000
3.970000
3.990000
Z_COORDINATES    1 float
0.000000
POINT_DATA 10400
SCALARS PRESSURE float
LOOKUP_TABLE default
41.997097
41.997148
41.997053
41.996876
41.996685
41.996663
41.997099
41.997972
41.998675
41.999029
41.999196
41.999283
41.999332
41.999358
41.999369
41.999368
41.999353
41.999312
41.999230
41.999092
41.998830
41.998374
41.997818
41.997355
41.997078
41.996959
41.996959
41.997078
41.997355
41.997818
41.998374
41.998830
41.999092
41.999230
41.999312
41.999353
41.999368
41.999369
41.999358
41.999332
41.999283
41.999196
41.999029
41.998675
41.997972
41.997099
41.996663
41.996685
41.996876
41.997053
41.997148
41.997097
41.753086
41.753044
41.753062
41.753112
41.753200
41.753308
41.753317
41.753274
41.753238
41.753299
41.753369
41.753421
41.753453
41.753471
41.753479
41.753475
41.753460
41.753433
41.753394
41.753342
41.753304
41.753303
41.753324
41.753327
41.753305
41.753282
41.753282
41.753305
41.753327
41.753324
41.753303
41.753304
41.753342
41.753394
41.753433
41.753460
41.753475
41.753479
41.753471
41.753453
41.753421
41.753369
41.753299
41.753238
41.753274
41.753317
41.753308
41.753200
41.753112
41.753062
41.753044
41.753086
41.524570
41.524563
41.524603
41.524687
41.524799
41.524863
41.524774
41.524470
41.524291
41.524235
41.524235
41.524247
41.524260
41.524269
41.524273
41.524272
41.524265
41.524257
41.524253
41.524260
41.524299
41.524414
41.524572
41.524696
41.524758
41.524780
41.524780
41.524758
41.524696
41.524572
41.524414
41.524299
41.524260
41.524253
41.524257
41.524265
41.524272
41.524273
41.524269
41.524260
41.524247
41.524235
41.524235
41.524291
41.524470
41.524774
41.524863
41.524799
41.524687
41.524603
41.524563
41.524570
41.315962
41.315960
41.315987
41.316036
41.316091
41.316106
41.316026
41.315859
41.315733
41.315669
41.315645
41.315639
41.315640
41.315642
41.315643
41.315642
41.315641
41.315642
41.315651
41.315673
41.315721
41.315806
41.315913
41.316006
41.316063
41.316089
41.316089
41.316063
41.316006
41.315913
41.315806
41.315721
41.315673
41.315651
41.315642
41.315641
41.315642
41.315643
41.315642
41.315640
41.315639
41.315645
41.315669
41.315733
41.315859
41.316026
41.316106
41.316091
41.316036
41.315987
41.315960
41.315962
41.114241
41.114241
41.114255
41.114278
41.114299
41.114295
41.114248
41.114167
41.114094
41.114047
41.114021
41.114009
41.114003
41.114001
41.114001
41.114000
41.114002
41.114006
41.114018
41.114040
41.114079
41.114135
41.114200
41.114257
41.114297
41.114317
41.114317
41.114297
41.114257
41.114200
41.114135
41.114079
41.114040
41.114018
41.114006
41.114002
41.114000
41.114001
41.114001
41.114003
41.114009
41.114021
41.114047
41.114094
41.114167
41.114248
41.114295
41.114299
41.114278
41.114255
41.114241
41.114241
40.914174
40.914174
40.914181
40.914191
40.914196
40.914188
40.914158
40.914114
40.914070
40.914036
40.914014
40.914001
40.913993
40.913989
40.913988
40.913988
40.913990
40.913996
40.914008
40.914028
40.914057
40.914094
40.914136
40.914173
40.914200
40.914214
40.914214
40.914200
40.914173
40.914136
40.914094
40.914057
40.914028
40.914008
40.913996
40.913990
40.913988
40.913988
40.913989
40.913993
40.914001
40.914014
40.914036
40.914070
40.914114
40.914158
40.914188
40.914196
40.914191
40.914181
40.914174
40.914174
40.714306
40.714306
40.714308
40.714311
40.714311
40.714301
40.714281
40.714252
40.714223
40.714199
40.714180
40.714168
40.714160
40.714156
40.714154
40.714154
40.714157
40.714164
40.714175
40.714191
40.714213
40.714239
40.714268
40.714293
40.714312
40.714322
40.714322
40.714312
40.714293
40.714268
40.714239
40.714213
40.714191
40.714175
40.714164
40.714157
40.714154
40.714154
40.714156
40.714160
40.714168
40.714180
40.714199
40.714223
40.714252
40.714281
40.714301
40.714311
40.714311
40.714308
40.714306
40.714306
40.514379
40.514379
40.514379
40.514379
40.514375
40.514366
40.514351
40.514331
40.514310
40.514292
40.514277
40.514267
40.514259
40.514255
40.514253
40.514254
40.514257
40.514263
40.514272
40.514286
40.514302
40.514322
40.514342
40.514360
40.514373
40.514380
40.514380
40.514373
40.514360
40.514342
40.514322
40.514302
40.514286
40.514272
40.514263
40.514257
40.514254
40.514253
40.514255
40.514259
40.514267
40.514277
40.514292
40.514310
40.514331
40.514351
40.514366
40.514375
40.514379
40.514379
40.514379
40.514379
40.314401
40.314401
40.314401
40.314399
40.314395
40.314386
40.314375
40.314360
40.314345
40.314330
40.314319
40.314310
40.314303
40.314299
40.314298
40.314298
40.314301
40.314306
40.314314
40.314325
40.314338
40.314352
40.314367
40.314380
40.314389
40.314395
40.314395
40.314389
40.314380
40.314367
40.314352
40.314338
40.314325
40.314314
40.314306
40.314301
40.314298
40.314298
40.314299
40.314303
40.314310
40.314319
40.314330
40.314345
40.314360
40.314375
40.314386
40.314395
40.314399
40.314401
40.314401
40.314401
40.114403
40.114403
40.114402
40.114399
40.114395
40.114388
40.114379
40.114368
40.114356
40.114345
40.114336
40.114328
40.114323
40.114319
40.114318
40.114318
40.114321
40.114325
40.114332
40.114340
40.114350
40.114361
40.114372
40.114381
40.114388
40.114392
40.114392
40.114388
40.114381
40.114372
40.114361
40.114350
40.114340
40.114332
40.114325
40.114321
40.114318
40.114318
40.114319
40.114323
40.114328
40.114336
40.114345
40.114356
40.114368
40.114379
40.114388
40.114395
40.114399
40.114402
40.114403
40.114403
39.914398
39.914398
39.914397
39.914394
39.914390
39.914384
39.914377
39.914368
39.914359
39.914351
39.914343
39.914337
39.914333
39.914330
39.914329
39.914329
39.914331
39.914335
39.914340
39.914347
39.914354
39.914362
39.914370
39.914377
39.914382
39.914385
39.914385
39.914382
39.914377
39.914370
39.914362
39.914354
39.914347
39.914340
39.914335
39.914331
39.914329
39.914329
39.914330
39.914333
39.914337
39.914343
39.914351
39.914359
39.914368
39.914377
39.914384
39.914390
39.914394
39.914397
39.914398
39.914398
39.714392
39.714392
39.714391
39.714389
39.714385
39.714380
39.714374
39.714368
39.714361
39.714354
39.714348
39.714343
39.714339
39.714337
39.714336
39.714336
39.714338
39.714341
39.714345
39.714350
39.714356
39.714362
39.714368
39.714373
39.714376
39.714378
39.714378
39.714376
39.714373
39.714368
39.714362
39.714356
39.714350
39.714345
39.714341
39.714338
39.714336
39.714336
39.714337
39.714339
39.714343
39.714348
39.714354
39.714361
39.714368
39.714374
39.714380
39.714385
39.714389
39.714391
39.714392
39.714392
39.514387
39.514387
39.514386
39.514384
39.514381
39.514377
39.514372
39.514367
39.514361
39.514356
39.514351
39.514347
39.514344
39.514342
39.514341
39.514341
39.514342
39.514345
39.514348
39.514352
39.514356
39.514361
39.514365
39.514369
39.514372
39.514373
39.514373
39.514372
39.514369
39.514365
39.514361
39.514356
39.514352
39.514348
39.514345
39.514342
39.514341
39.514341
39.514342
39.514344
39.514347
39.514351
39.514356
39.514361
39.514367
39.514372
39.514377
39.514381
39.514384
39.514386
39.514387
39.514387
39.314382
39.314382
39.314381
39.314380
39.314377
39.314374
39.314370
39.314366
39.314361
39.314357
39.314353
39.314350
39.314348
39.314346
39.314345
39.314345
39.314346
39.314348
39.314350
39.314354
39.314357
39.314360
39.314364
39.314367
39.314369
39.314370
39.314370
39.314369
39.314367
39.314364
39.314360
39.314357
39.314354
39.314350
39.314348
39.314346
39.314345
39.314345
39.314346
39.314348
39.314350
39.314353
39.314357
39.314361
39.314366
39.314370
39.314374
39.314377
39.314380
39.314381
39.314382
39.314382
39.114378
39.114378
39.114378
39.114376
39.114374
39.114371
39.114368
39.114365
39.114362
39.114358
39.114355
39.114352
39.114350
39.114349
39.114348
39.114348
39.114349
39.114350
39.114352
39.114355
39.114357
39.114360
39.114363
39.114365
39.114366
39.114367
39.114367
39.114366
39.114365
39.114363
39.114360
39.114357
39.114355
39.114352
39.114350
39.114349
39.114348
39.114348
39.114349
39.114350
39.114352
39.114355
39.114358
39.114362
39.114365
39.114368
39.114371
39.114374
39.114376
39.114378
39.114378
39.114378
38.914375
38.914375
38.914375
38.914373
38.914372
38.914370
38.914367
38.914364
38.914362
38.914359
38.914356
38.914354
38.914353
38.914351
38.914351
38.914351
38.914351
38.914353
38.914354
38.914356
38.914358
38.914360
38.914362
38.914363
38.914364
38.914365
38.914365
38.914364
38.914363
38.914362
38.914360
38.914358
38.914356
38.914354
38.914353
38.914351
38.914351
38.914351
38.914351
38.914353
38.914354
38.914356
38.914359
38.914362
38.914364
38.914367
38.914370
38.914372
38.914373
38.914375
38.914375
38.914375
38.714372
38.714372
38.714372
38.714371
38.714370
38.714368
38.714366
38.714364
38.714362
38.714359
38.714357
38.714356
38.714354
38.714353
38.714353
38.714353
38.714353
38.714354
38.714355
38.714357
38.714358
38.714360
38.714361
38.714362
38.714363
38.714364
38.714364
38.714363
38.714362
38.714361
38.714360
38.714358
38.714357
38.714355
38.714354
38.714353
38.714353
38.714353
38.714353
38.714354
38.714356
38.714357
38.714359
38.714362
38.714364
38.714366
38.714368
38.714370
38.714371
38.714372
38.714372
38.714372
38.514370
38.514370
38.514370
38.514369
38.514368
38.514367
38.514365
38.514363
38.514362
38.514360
38.514358
38.514357
38.514356
38.514355
38.514355
38.514355
38.514355
38.514355
38.514356
38.514357
38.514358
38.514360
38.514361
38.514362
38.514362
38.514363
38.514363
38.514362
38.514362
38.514361
38.514360
38.514358
38.514357
38.514356
38.514355
38.514355
38.514355
38.514355
38.514355
38.514356
38.514357
38.514358
38.514360
38.514362
38.514363
38.514365
38.514367
38.514368
38.514369
38.514370
38.514370
38.514370
38.314369
38.314369
38.314368
38.314368
38.314367
38.314366
38.314364
38.314363
38.314362
38.314360
38.314359
38.314358
38.314357
38.314356
38.314356
38.314356
38.314356
38.314356
38.314357
38.314358
38.314359
38.314360
38.314360
38.314361
38.314362
38.314362
38.314362
38.314362
38.314361
38.314360
38.314360
38.314359
38.314358
38.314357
38.314356
38.314356
38.314356
38.314356
38.314356
38.314357
38.314358
38.314359
38.314360
38.314362
38.314363
38.314364
38.314366
38.314367
38.314368
38.314368
38.314369
38.314369
38.114367
38.114367
38.114367
38.114366
38.114366
38.114365
38.114364
38.114363
38.114361
38.114360
38.114359
38.114358
38.114358
38.114357
38.114357
38.114357
38.114357
38.114357
38.114358
38.114358
38.114359
38.114360
38.114360
38.114361
38.114361
38.114361
38.114361
38.114361
38.114361
38.114360
38.114360
38.114359
38.114358
38.114358
38.114357
38.114357
38.114357
38.114357
38.114357
38.114358
38.114358
38.114359
38.114360
38.114361
38.114363
38.114364
38.114365
38.114366
38.114366
38.114367
38.114367
38.114367
37.914366
37.914366
37.914366
37.914365
37.914365
37.914364
37.914363
37.914362
37.914361
37.914360
37.914360
37.914359
37.914358
37.914358
37.914358
37.914358
37.914358
37.914358
37.914358
37.914359
37.914359
37.914360
37.914360
37.914361
37.914361
37.914361
37.914361
37.914361
37.914361
37.914360
37.914360
37.914359
37.914359
37.914358
37.914358
37.914358
37.914358
37.914358
37.914358
37.914358
37.914359
37.914360
37.914360
37.914361
37.914362
37.914363
37.914364
37.914365
37.914365
37.914366
37.914366
37.914366
37.714365
37.714365
37.714365
37.714364
37.714364
37.714363
37.714363
37.714362
37.714361
37.714361
37.714360
37.714359
37.714359
37.714359
37.714358
37.714358
37.714358
37.714359
37.714359
37.714359
37.714360
37.714360
37.714360
37.714361
37.714361
37.714361
37.714361
37.714361
37.714361
37.714360
37.714360
37.714360
37.714359
37.714359
37.714359
37.714358
37.714358
37.714358
37.714359
37.714359
37.714359
37.714360
37.714361
37.714361
37.714362
37.714363
37.714363
37.714364
37.714364
37.714365
37.714365
37.714365
37.514364
37.514364
37.514364
37.514363
37.514363
37.514363
37.514362
37.514362
37.514361
37.514361
37.514360
37.514360
37.514359
37.514359
37.514359
37.514359
37.514359
37.514359
37.514359
37.514360
37.514360
37.514360
37.514361
37.514361
37.514361
37.514361
37.514361
37.514361
37.514361
37.514361
37.514360
37.514360
37.514360
37.514359
37.514359
37.514359
37.514359
37.514359
37.514359
37.514359
37.514360
37.514360
37.514361
37.514361
37.514362
37.514362
37.514363
37.514363
37.514363
37.514364
37.514364
37.514364
37.314363
37.314363
37.314363
37.314363
37.314362
37.314362
37.314362
37.314361
37.314361
37.314360
37.314360
37.314360
37.314360
37.314359
37.314359
37.314359
37.314359
37.314360
37.314360
37.314360
37.314360
37.314361
37.314361
37.314361
37.314361
37.314361
37.314361
37.314361
37.314361
37.314361
37.314361
37.314360
37.314360
37.314360
37.314360
37.314359
37.314359
37.314359
37.314359
37.314360
37.314360
37.314360
37.314360
37.314361
37.314361
37.314362
37.314362
37.314362
37.314363
37.314363
37.314363
37.314363
37.114362
37.114362
37.114362
37.114362
37.114362
37.114362
37.114361
37.114361
37.114361
37.114360
37.114360
37.114360
37.114360
37.114360
37.114360
37.114360
37.114360
37.114360
37.114360
37.114360
37.114361
37.114361
37.114361
37.114361
37.114361
37.114361
37.114361
37.114361
37.114361
37.114361
37.114361
37.114361
37.114360
37.114360
37.114360
37.114360
37.114360
37.114360
37.114360
37.114360
37.114360
37.114360
37.114360
37.114361
37.114361
37.114361
37.114362
37.114362
37.114362
37.114362
37.114362
37.114362
36.914362
36.914362
36.914361
36.914361
36.914361
36.914361
36.914361
36.914361
36.914360
36.914360
36.914360
36.914360
36.914360
36.914360
36.914360
36.914360
36.914360
36.914360
36.914360
36.914361
36.914361
36.914361
36.914361
36.914361
36.914362
36.914362
36.914362
36.914362
36.914361
36.914361
36.914361
36.914361
36.914361
36.914360
36.914360
36.914360
36.914360
36.914360
36.914360
36.914360
36.914360
36.914360
36.914360
36.914360
36.914361
36.914361
36.914361
36.914361
36.914361
36.914361
36.914362
36.914362
36.714361
36.714361
36.714361
36.714361
36.714361
36.714361
36.714360
36.714360
36.714360
36.714360
36.714360
36.714360
36.714360
36.714360
36.714360
36.714360
36.714360
36.714361
36.714361
36.714361
36.714361
36.714361
36.714362
36.714362
36.714362
36.714362
36.714362
36.714362
36.714362
36.714362
36.714361
36.714361
36.714361
36.714361
36.714361
36.714360
36.714360
36.714360
36.714360
36.714360
36.714360
36.714360
36.714360
36.714360
36.714360
36.714360
36.714361
36.714361
36.714361
36.714361
36.714361
36.714361
36.514360
36.514360
36.514360
36.514360
36.514360
36.514360
36.514360
36.514360
36.514360
36.514360
36.514360
36.514360
36.514360
36.514360
36.514360
36.514361
36.514361
36.514361
36.514361
36.514361
36.514362
36.514362
36.514362
36.514362
36.514362
36.514362
36.514362
36.514362
36.514362
36.514362
36.514362
36.514362
36.514361
36.514361
36.514361
36.514361
36.514361
36.514360
36.514360
36.514360
36.514360
36.514360
36.514360
36.514360
36.514360
36.514360
36.514360
36.514360
36.514360
36.514360
36.514360
36.514360
36.314360
36.314360
36.314360
36.314360
36.314360
36.314360
36.314360
36.314360
36.314360
36.314360
36.314360
36.314360
36.314360
36.314360
36.314361
36.314361
36.314361
36.314361
36.314361
36.314362
36.314362
36.314362
36.314362
36.314362
36.314362
36.314363
36.314363
36.314362
36.314362
36.314362
36.314362
36.314362
36.314362
36.314361
36.314361
36.314361
36.314361
36.314361
36.314360
36.314360
36.314360
36.314360
36.314360
36.314360
36.314360
36.314360
36.314360
36.314360
36.314360
36.314360
36.314360
36.314360
36.114359
36.114359
36.114359
36.114359
36.114359
36.114359
36.114359
36.114359
36.114360
36.114360
36.114360
36.114360
36.114360
36.114360
36.114361
36.114361
36.114361
36.114361
36.114362
36.114362
36.114362
36.114362
36.114363
36.114363
36.114363
36.114363
36.114363
36.114363
36.114363
36.114363
36.114362
36.114362
36.114362
36.114362
36.114361
36.114361
36.114361
36.114361
36.114360
36.114360
36.114360
36.114360
36.114360
36.114360
36.114359
36.114359
36.114359
36.114359
36.114359
36.114359
36.114359
36.114359
35.914359
35.914359
35.914359
35.914359
35.914359
35.914359
35.914359
35.914359
35.914359
35.914359
35.914360
35.914360
35.914360
35.914360
35.914361
35.914361
35.914361
35.914362
35.914362
35.914362
35.914363
35.914363
35.914363
35.914363
35.914363
35.914363
35.914363
35.914363
35.914363
35.914363
35.914363
35.914363
35.914362
35.914362
35.914362
35.914361
35.914361
35.914361
35.914360
35.914360
35.914360
35.914360
35.914359
35.914359
35.914359
35.914359
35.914359
35.914359
35.914359
35.914359
35.914359
35.914359
35.714358
35.714358
35.714358
35.714358
35.714358
35.714358
35.714358
35.714359
35.714359
35.714359
35.714359
35.714360
35.714360
35.714361
35.714361
35.714361
35.714362
35.714362
35.714362
35.714363
35.714363
35.714363
35.714364
35.714364
35.714364
35.714364
35.714364
35.714364
35.714364
35.714364
35.714363
35.714363
35.714363
35.714362
35.714362
35.714362
35.714361
35.714361
35.714361
35.714360
35.714360
35.714359
35.714359
35.714359
35.714359
35.714358
35.714358
35.714358
35.714358
35.714358
35.714358
35.714358
35.514357
35.514357
35.514357
35.514357
35.514358
35.514358
35.514358
35.514358
35.514359
35.514359
35.514359
35.514360
35.514360
35.514361
35.514361
35.514362
35.514362
35.514362
35.514363
35.514363
35.514364
35.514364
35.514364
35.514364
35.514364
35.514364
35.514364
35.514364
35.514364
35.514364
35.514364
35.514364
35.514363
35.514363
35.514362
35.514362
35.514362
35.514361
35.514361
35.514360
35.514360
35.514359
35.514359
35.514359
35.514358
35.514358
35.514358
35.514358
35.514357
35.514357
35.514357
35.514357
35.314357
35.314357
35.314357
35.314357
35.314357
35.314357
35.314357
35.314358
35.314358
35.314359
35.314359
35.314360
35.314360
35.314361
35.314361
35.314362
35.314362
35.314363
35.314363
35.314364
35.314364
35.314364
35.314365
35.314365
35.314365
35.314365
35.314365
35.314365
35.314365
35.314365
35.314364
35.314364
35.314364
35.314363
35.314363
35.314362
35.314362
35.314361
35.314361
35.314360
35.314360
35.314359
35.314359
35.314358
35.314358
35.314357
35.314357
35.314357
35.314357
35.314357
35.314357
35.314357
35.114356
35.114356
35.114356
35.114356
35.114356
35.114357
35.114357
35.114357
35.114358
35.114358
35.114359
35.114359
35.114360
35.114361
35.114361
35.114362
35.114363
35.114363
35.114364
35.114364
35.114365
35.114365
35.114365
35.114366
35.114366
35.114366
35.114366
35.114366
35.114366
35.114365
35.114365
35.114365
35.114364
35.114364
35.114363
35.114363
35.114362
35.114361
35.114361
35.114360
35.114359
35.114359
35.114358
35.114358
35.114357
35.114357
35.114357
35.114356
35.114356
35.114356
35.114356
35.114356
34.914355
34.914355
34.914355
34.914355
34.914356
34.914356
34.914356
34.914357
34.914357
34.914358
34.914359
34.914359
34.914360
34.914361
34.914361
34.914362
34.914363
34.914363
34.914364
34.914365
34.914365
34.914366
34.914366
34.914366
34.914367
34.914367
34.914367
34.914367
34.914366
34.914366
34.914366
34.914365
34.914365
34.914364
34.914363
34.914363
34.914362
34.914361
34.914361
34.914360
34.914359
34.914359
34.914358
34.914357
34.914357
34.914356
34.914356
34.914356
34.914355
34.914355
34.914355
34.914355
34.714354
34.714354
34.714354
34.714354
34.714355
34.714355
34.714356
34.714356
34.714357
34.714357
34.714358
34.714359
34.714360
34.714361
34.714362
34.714362
34.714363
34.714364
34.714365
34.714365
34.714366
34.714366
34.714367
34.714367
34.714367
34.714367
34.714367
34.714367
34.714367
34.714367
34.714366
34.714366
34.714365
34.714365
34.714364
34.714363
34.714362
34.714362
34.714361
34.714360
34.714359
34.714358
34.714357
34.714357
34.714356
34.714356
34.714355
34.714355
34.714354
34.714354
34.714354
34.714354
34.514353
34.514353
34.514353
34.514353
34.514354
34.514354
34.514355
34.514355
34.514356
34.514357
34.514358
34.514359
34.514360
34.514361
34.514362
34.514363
34.514364
34.514364
34.514365
34.514366
34.514367
34.514367
34.514368
34.514368
34.514368
34.514368
34.514368
34.514368
34.514368
34.514368
34.514367
34.514367
34.514366
34.514365
34.514364
34.514364
34.514363
34.514362
34.514361
34.514360
34.514359
34.514358
34.514357
34.514356
34.514355
34.514355
34.514354
34.514354
34.514353
34.514353
34.514353
34.514353
34.314352
34.314352
34.314352
34.314352
34.314353
34.314353
34.314354
34.314355
34.314356
34.314356
34.314357
34.314359
34.314360
34.314361
34.314362
34.314363
34.314364
34.314365
34.314366
34.314367
34.314368
34.314368
34.314369
34.314369
34.314369
34.314370
34.314370
34.314369
34.314369
34.314369
34.314368
34.314368
34.314367
34.314366
34.314365
34.314364
34.314363
34.314362
34.314361
34.314360
34.314359
34.314357
34.314356
34.314356
34.314355
34.314354
34.314353
34.314353
34.314352
34.314352
34.314352
34.314352
34.114351
34.114351
34.114351
34.114351
34.114352
34.114352
34.114353
34.114354
34.114355
34.114356
34.114357
34.114358
34.114359
34.114361
34.114362
34.114363
34.114364
34.114366
34.114367
34.114368
34.114369
34.114369
34.114370
34.114370
34.114371
34.114371
34.114371
34.114371
34.114370
34.114370
34.114369
34.114369
34.114368
34.114367
34.114366
34.114364
34.114363
34.114362
34.114361
34.114359
34.114358
34.114357
34.114356
34.114355
34.114354
34.114353
34.114352
34.114352
34.114351
34.114351
34.114351
34.114351
33.914349
33.914349
33.914349
33.914350
33.914350
33.914351
33.914352
33.914353
33.914354
33.914355
33.914356
33.914358
33.914359
33.914361
33.914362
33.914364
33.914365
33.914366
33.914368
33.914369
33.914370
33.914370
33.914371
33.914372
33.914372
33.914372
33.914372
33.914372
33.914372
33.914371
33.914370
33.914370
33.914369
33.914368
33.914366
33.914365
33.914364
33.914362
33.914361
33.914359
33.914358
33.914356
33.914355
33.914354
33.914353
33.914352
33.914351
33.914350
33.914350
33.914349
33.914349
33.914349
33.714348
33.714348
33.714348
33.714348
33.714349
33.714350
33.714351
33.714352
33.714353
33.714354
33.714356
33.714357
33.714359
33.714361
33.714362
33.714364
33.714366
33.714367
33.714368
33.714370
33.714371
33.714372
33.714373
33.714373
33.714374
33.714374
33.714374
33.714374
33.714373
33.714373
33.714372
33.714371
33.714370
33.714368
33.714367
33.714366
33.714364
33.714362
33.714361
33.714359
33.714357
33.714356
33.714354
33.714353
33.714352
33.714351
33.714350
33.714349
33.714348
33.714348
33.714348
33.714348
33.514346
33.514346
33.514346
33.514347
33.514347
33.514348
33.514349
33.514351
33.514352
33.514354
33.514355
33.514357
33.514359
33.514361
33.514363
33.514364
33.514366
33.514368
33.514369
33.514371
33.514372
33.514373
33.514374
33.514375
33.514375
33.514376
33.514376
33.514375
33.514375
33.514374
33.514373
33.514372
33.514371
33.514369
33.514368
33.514366
33.514364
33.514363
33.514361
33.514359
33.514357
33.514355
33.514354
33.514352
33.514351
33.514349
33.514348
33.514347
33.514347
33.514346
33.514346
33.514346
33.314344
33.314344
33.314344
33.314345
33.314345
33.314346
33.314348
33.314349
33.314351
33.314353
33.314354
33.314357
33.314359
33.314361
33.314363
33.314365
33.314367
33.314369
33.314371
33.314372
33.314374
33.314375
33.314376
33.314377
33.314377
33.314378
33.314378
33.314377
33.314377
33.314376
33.314375
33.314374
33.314372
33.314371
33.314369
33.314367
33.314365
33.314363
33.314361
33.314359
33.314357
33.314354
33.314353
33.314351
33.314349
33.314348
33.314346
33.314345
33.314345
33.314344
33.314344
33.314344
33.114342
33.114342
33.114342
33.114342
33.114343
33.114345
33.114346
33.114348
33.114349
33.114351
33.114354
33.114356
33.114358
33.114361
33.114363
33.114366
33.114368
33.114370
33.114372
33.114374
33.114376
33.114377
33.114378
33.114379
33.114380
33.114380
33.114380
33.114380
33.114379
33.114378
33.114377
33.114376
33.114374
33.114372
33.114370
33.114368
33.114366
33.114363
33.114361
33.114358
33.114356
33.114354
33.114351
33.114349
33.114348
33.114346
33.114345
33.114343
33.114342
33.114342
33.114342
33.114342
32.914339
32.914339
32.914339
32.914340
32.914341
32.914342
32.914344
32.914346
32.914348
32.914350
32.914353
32.914355
32.914358
32.914361
32.914363
32.914366
32.914369
32.914371
32.914374
32.914376
32.914378
32.914379
32.914380
32.914381
32.914382
32.914383
32.914383
32.914382
32.914381
32.914380
32.914379
32.914378
32.914376
32.914374
32.914371
32.914369
32.914366
32.914363
32.914361
32.914358
32.914355
32.914353
32.914350
32.914348
32.914346
32.914344
32.914342
32.914341
32.914340
32.914339
32.914339
32.914339
32.714336
32.714336
32.714336
32.714337
32.714338
32.714340
32.714342
32.714344
32.714346
32.714349
32.714352
32.714355
32.714358
32.714361
32.714364
32.714367
32.714370
32.714373
32.714375
32.714378
32.714380
32.714382
32.714383
32.714384
32.714385
32.714385
32.714385
32.714385
32.714384
32.714383
32.714382
32.714380
32.714378
32.714375
32.714373
32.714370
32.714367
32.714364
32.714361
32.714358
32.714355
32.714352
32.714349
32.714346
32.714344
32.714342
32.714340
32.714338
32.714337
32.714336
32.714336
32.714336
32.514333
32.514333
32.514333
32.514334
32.514335
32.514337
32.514339
32.514342
32.514344
32.514347
32.514350
32.514354
32.514357
32.514361
32.514364
32.514368
32.514371
32.514374
32.514377
32.514380
32.514382
32.514384
32.514386
32.514387
32.514388
32.514389
32.514389
32.514388
32.514387
32.514386
32.514384
32.514382
32.514380
32.514377
32.514374
32.514371
32.514368
32.514364
32.514361
32.514357
32.514354
32.514350
32.514347
32.514344
32.514342
32.514339
32.514337
32.514335
32.514334
32.514333
32.514333
32.514333
32.314329
32.314329
32.314330
32.314331
32.314332
32.314334
32.314336
32.314339
32.314342
32.314345
32.314349
32.314353
32.314357
32.314361
32.314365
32.314369
32.314372
32.314376
32.314379
32.314382
32.314385
32.314388
32.314389
32.314391
32.314392
32.314392
32.314392
32.314392
32.314391
32.314389
32.314388
32.314385
32.314382
32.314379
32.314376
32.314372
32.314369
32.314365
32.314361
32.314357
32.314353
32.314349
32.314345
32.314342
32.314339
32.314336
32.314334
32.314332
32.314331
32.314330
32.314329
32.314329
32.114325
32.114325
32.114325
32.114327
32.114328
32.114330
32.114333
32.114336
32.114340
32.114343
32.114347
32.114352
32.114356
32.114361
32.114365
32.114370
32.114374
32.114378
32.114382
32.114385
32.114388
32.114391
32.114393
32.114395
32.114396
32.114397
32.114397
32.114396
32.114395
32.114393
32.114391
32.114388
32.114385
32.114382
32.114378
32.114374
32.114370
32.114365
32.114361
32.114356
32.114352
32.114347
32.114343
32.114340
32.114336
32.114333
32.114330
32.114328
32.114327
32.114325
32.114325
32.114325
31.914320
31.914320
31.914321
31.914322
31.914324
31.914326
31.914329
31.914333
31.914337
31.914341
31.914346
31.914351
31.914356
31.914361
31.914366
31.914371
31.914376
31.914380
31.914385
31.914389
31.914392
31.914395
31.914398
31.914400
31.914401
31.914401
31.914401
31.914401
31.914400
31.914398
31.914395
31.914392
31.914389
31.914385
31.914380
31.914376
31.914371
31.914366
31.914361
31.914356
31.914351
31.914346
31.914341
31.914337
31.914333
31.914329
31.914326
31.914324
31.914322
31.914321
31.914320
31.914320
31.714315
31.714315
31.714315
31.714317
31.714319
31.714322
31.714325
31.714329
31.714334
31.714338
31.714344
31.714349
31.714355
31.714361
31.714367
31.714372
31.714378
31.714383
31.714388
31.714392
31.714396
31.714400
31.714403
31.714405
31.714406
31.714407
31.714407
31.714406
31.714405
31.714403
31.714400
31.714396
31.714392
31.714388
31.714383
31.714378
31.714372
31.714367
31.714361
31.714355
31.714349
31.714344
31.714338
31.714334
31.714329
31.714325
31.714322
31.714319
31.714317
31.714315
31.714315
31.714315
31.514309
31.514309
31.514309
31.514311
31.514313
31.514317
31.514320
31.514325
31.514330
31.514336
31.514341
31.514348
31.514354
31.514361
31.514367
31.514374
31.514380
31.514386
31.514391
31.514397
31.514401
31.514405
31.514408
31.514410
31.514412
31.514413
31.514413
31.514412
31.514410
31.514408
31.514405
31.514401
31.514397
31.514391
31.514386
31.514380
31.514374
31.514367
31.514361
31.514354
31.514348
31.514341
31.514336
31.514330
31.514325