# vtk DataFile Version 3.0
PRESSURE
ASCII

DATASET RECTILINEAR_GRID
DIMENSIONS  52  200  1
X_COORDINATES    52 float
0.010000
0.030000
0.050000
0.070000
0.090000
0.110000
0.130000
0.150000
0.170000
0.190000
0.210000
0.230000
0.250000
0.270000
0.290000
0.310000
0.330000
0.350000
0.370000
0.390000
0.410000
0.430000
0.450000
0.470000
0.490000
0.510000
0.530000
0.550000
0.570000
0.590000
0.610000
0.630000
0.650000
0.670000
0.690000
0.710000
0.730000
0.750000
0.770000
0.790000
0.810000
0.830000
0.850000
0.870000
0.890000
0.910000
0.930000
0.950000
0.970000
0.990000
1.010000
1.030000
Y_COORDINATES    200 float
0.010000
0.030000
0.050000
0.070000
0.090000
0.110000
0.130000
0.150000
0.170000
0.190000
0.210000
0.230000
0.250000
0.270000
0.290000
0.310000
0.330000
0.350000
0.370000
0.390000
0.410000
0.430000
0.450000
0.470000
0.490000
0.510000
0.530000
0.550000
0.570000
0.590000
0.610000
0.630000
0.650000
0.670000
0.690000
0.710000
0.730000
0.750000
0.770000
0.790000
0.810000
0.830000
0.850000
0.870000
0.890000
0.910000
0.930000
0.950000
0.970000
0.990000
1.010000
1.030000
1.050000
1.070000
1.090000
1.110000
1.130000
1.150000
1.170000
1.190000
1.210000
1.230000
1.250000
1.270000
1.290000
1.310000
1.330000
1.350000
1.370000
1.390000
1.410000
1.430000
1.450000
1.470000
1.490000
1.510000
1.530000
1.550000
1.570000
1.590000
1.610000
1.630000
1.650000
1.670000
1.690000
1.710000
1.730000
1.750000
1.770000
1.790000
1.810000
1.830000
1.850000
1.870000
1.890000
1.910000
1.930000
1.950000
1.970000
1.990000
2.010000
2.030000
2.050000
2.070000
2.090000
2.110000
2.130000
2.150000
2.170000
2.190000
2.210000
2.230000
2.250000
2.270000
2.290000
2.310000
2.330000
2.350000
2.370000
2.390000
2.410000
2.430000
2.450000
2.470000
2.490000
2.510000
2.530000
2.550000
2.570000
2.590000
2.610000
2.630000
2.650000
2.670000
2.690000
2.710000
2.730000
2.750000
2.770000
2.790000
2.810000
2.830000
2.850000
2.870000
2.890000
2.910000
2.930000
2.950000
2.970000
2.990000
3.010000
3.030000
3.050000
3.070000
3.090000
3.110000
3.130000
3.150000
3.170000
3.190000
3.210000
3.230000
3.250000
3.270000
3.290000
3.310000
3.330000
3.350000
3.370000
3.390000
3.410000
3.430000
3.450000
3.470000
3.490000
3.510000
3.530000
3.550000
3.570000
3.590000
3.610000
3.630000
3.650000
3.670000
3.690000
3.710000
3.730000
3.750000
3.770000
3.790000
3.810000
3.830000
3.850000
3.870000
3.890000
3.910000
3.930000
3.950000
3.970000
3.990000
Z_COORDINATES    1 float
0.000000
POINT_DATA 10400
SCALARS PRESSURE float
LOOKUP_TABLE default
41.351795
41.351835
41.351867
41.351921
41.352028
41.352297
41.352840
41.353705
41.354700
41.355630
41.356355
41.356845
41.357108
41.357115
41.356869
41.356382
41.355696
41.354904
41.354106
41.353371
41.352723
41.352125
41.351576
41.351118
41.350807
41.350657
41.350657
41.350807
41.351118
41.351576
41.352125
41.352723
41.353371
41.354106
41.354904
41.355696
41.356382
41.356869
41.357115
41.357108
41.356845
41.356355
41.355630
41.354700
41.353705
41.352840
41.352297
41.352028
41.351921
41.351867
41.351835
41.351795
41.154988
41.154951
41.154971
41.155017
41.155090
41.155182
41.155301
41.155406
41.155550
41.155653
41.155743
41.155832
41.155859
41.155861
41.155839
41.155772
41.155687
41.155582
41.155448
41.155311
41.155171
41.155046
41.154934
41.154850
41.154791
41.154760
41.154760
41.154791
41.154850
41.154934
41.155046
41.155171
41.155311
41.155448
41.155582
41.155687
41.155772
41.155839
41.155861
41.155859
41.155832
41.155743
41.155653
41.155550
41.155406
41.155301
41.155182
41.155090
41.155017
41.154971
41.154951
41.154988
40.949037
40.949034
40.949041
40.949063
40.949098
40.949112
40.949051
40.948899
40.948688
40.948515
40.948391
40.948295
40.948251
40.948250
40.948294
40.948395
40.948529
40.948672
40.948803
40.948900
40.948965
40.949026
40.949099
40.949163
40.949200
40.949214
40.949214
40.949200
40.949163
40.949099
40.949026
40.948965
40.948900
40.948803
40.948672
40.948529
40.948395
40.948294
40.948250
40.948251
40.948295
40.948391
40.948515
40.948688
40.948899
40.949051
40.949112
40.949098
40.949063
40.949041
40.949034
40.949037
40.747419
40.747419
40.747422
40.747428
40.747433
40.747417
40.747353
40.747236
40.747083
40.746947
40.746841
40.746760
40.746721
40.746720
40.746758
40.746836
40.746942
40.747057
40.747168
40.747260
40.747335
40.747401
40.747466
40.747522
40.747557
40.747573
40.747573
40.747557
40.747522
40.747466
40.747401
40.747335
40.747260
40.747168
40.747057
40.746942
40.746836
40.746758
40.746720
40.746721
40.746760
40.746841
40.746947
40.747083
40.747236
40.747353
40.747417
40.747433
40.747428
40.747422
40.747419
40.747419
40.547130
40.547130
40.547129
40.547127
40.547118
40.547094
40.547043
40.546966
40.546872
40.546782
40.546708
40.546653
40.546624
40.546623
40.546650
40.546702
40.546772
40.546850
40.546928
40.546998
40.547058
40.547112
40.547160
40.547199
40.547225
40.547238
40.547238
40.547225
40.547199
40.547160
40.547112
40.547058
40.546998
40.546928
40.546850
40.546772
40.546702
40.546650
40.546623
40.546624
40.546653
40.546708
40.546782
40.546872
40.546966
40.547043
40.547094
40.547118
40.547127
40.547129
40.547130
40.547130
40.347000
40.347000
40.346997
40.346990
40.346977
40.346951
40.346910
40.346854
40.346789
40.346725
40.346671
40.346632
40.346611
40.346609
40.346628
40.346665
40.346716
40.346773
40.346832
40.346888
40.346938
40.346982
40.347021
40.347051
40.347073
40.347083
40.347083
40.347073
40.347051
40.347021
40.346982
40.346938
40.346888
40.346832
40.346773
40.346716
40.346665
40.346628
40.346609
40.346611
40.346632
40.346671
40.346725
40.346789
40.346854
40.346910
40.346951
40.346977
40.346990
40.346997
40.347000
40.347000
40.146921
40.146921
40.146918
40.146909
40.146894
40.146871
40.146838
40.146795
40.146748
40.146701
40.146662
40.146633
40.146617
40.146616
40.146630
40.146658
40.146695
40.146739
40.146784
40.146828
40.146869
40.146906
40.146938
40.146963
40.146980
40.146989
40.146989
40.146980
40.146963
40.146938
40.146906
40.146869
40.146828
40.146784
40.146739
40.146695
40.146658
40.146630
40.146616
40.146617
40.146633
40.146662
40.146701
40.146748
40.146795
40.146838
40.146871
40.146894
40.146909
40.146918
40.146921
40.146921
39.946879
39.946879
39.946875
39.946866
39.946852
39.946832
39.946806
39.946773
39.946738
39.946705
39.946675
39.946654
39.946643
39.946642
39.946653
39.946673
39.946701
39.946734
39.946770
39.946805
39.946838
39.946868
39.946893
39.946913
39.946927
39.946935
39.946935
39.946927
39.946913
39.946893
39.946868
39.946838
39.946805
39.946770
39.946734
39.946701
39.946673
39.946653
39.946642
39.946643
39.946654
39.946675
39.946705
39.946738
39.946773
39.946806
39.946832
39.946852
39.946866
39.946875
39.946879
39.946879
39.746854
39.746854
39.746850
39.746842
39.746830
39.746813
39.746792
39.746768
39.746742
39.746717
39.746695
39.746680
39.746672
39.746671
39.746679
39.746695
39.746716
39.746741
39.746769
39.746797
39.746823
39.746847
39.746868
39.746884
39.746895
39.746901
39.746901
39.746895
39.746884
39.746868
39.746847
39.746823
39.746797
39.746769
39.746741
39.746716
39.746695
39.746679
39.746671
39.746672
39.746680
39.746695
39.746717
39.746742
39.746768
39.746792
39.746813
39.746830
39.746842
39.746850
39.746854
39.746854
39.546836
39.546836
39.546833
39.546826
39.546816
39.546803
39.546786
39.546767
39.546748
39.546729
39.546713
39.546702
39.546696
39.546696
39.546702
39.546714
39.546730
39.546750
39.546771
39.546793
39.546814
39.546834
39.546850
39.546863
39.546872
39.546877
39.546877
39.546872
39.546863
39.546850
39.546834
39.546814
39.546793
39.546771
39.546750
39.546730
39.546714
39.546702
39.546696
39.546696
39.546702
39.546713
39.546729
39.546748
39.546767
39.546786
39.546803
39.546816
39.546826
39.546833
39.546836
39.546836
39.346823
39.346823
39.346820
39.346814
39.346806
39.346795
39.346782
39.346768
39.346753
39.346739
39.346728
39.346719
39.346715
39.346715
39.346720
39.346729
39.346742
39.346757
39.346774
39.346791
39.346808
39.346824
39.346837
39.346847
39.346855
39.346858
39.346858
39.346855
39.346847
39.346837
39.346824
39.346808
39.346791
39.346774
39.346757
39.346742
39.346729
39.346720
39.346715
39.346715
39.346719
39.346728
39.346739
39.346753
39.346768
39.346782
39.346795
39.346806
39.346814
39.346820
39.346823
39.346823
39.146812
39.146812
39.146810
39.146805
39.146799
39.146790
39.146780
39.146769
39.146758
39.146747
39.146739
39.146733
39.146730
39.146730
39.146734
39.146741
39.146751
39.146763
39.146776
39.146790
39.146803
39.146816
39.146826
39.146835
39.146841
39.146844
39.146844
39.146841
39.146835
39.146826
39.146816
39.146803
39.146790
39.146776
39.146763
39.146751
39.146741
39.146734
39.146730
39.146730
39.146733
39.146739
39.146747
39.146758
39.146769
39.146780
39.146790
39.146799
39.146805
39.146810
39.146812
39.146812
38.946804
38.946804
38.946802
38.946798
38.946793
38.946786
38.946779
38.946770
38.946762
38.946754
38.946748
38.946743
38.946741
38.946741
38.946745
38.946750
38.946758
38.946768
38.946778
38.946789
38.946799
38.946809
38.946818
38.946825
38.946829
38.946832
38.946832
38.946829
38.946825
38.946818
38.946809
38.946799
38.946789
38.946778
38.946768
38.946758
38.946750
38.946745
38.946741
38.946741
38.946743
38.946748
38.946754
38.946762
38.946770
38.946779
38.946786
38.946793
38.946798
38.946802
38.946804
38.946804
38.746798
38.746798
38.746796
38.746793
38.746789
38.746784
38.746778
38.746771
38.746765
38.746759
38.746754
38.746751
38.746750
38.746750
38.746753
38.746757
38.746764
38.746771
38.746779
38.746788
38.746796
38.746804
38.746811
38.746816
38.746820
38.746822
38.746822
38.746820
38.746816
38.746811
38.746804
38.746796
38.746788
38.746779
38.746771
38.746764
38.746757
38.746753
38.746750
38.746750
38.746751
38.746754
38.746759
38.746765
38.746771
38.746778
38.746784
38.746789
38.746793
38.746796
38.746798
38.746798
38.546793
38.546793
38.546791
38.546789
38.546786
38.546782
38.546777
38.546772
38.546767
38.546763
38.546760
38.546757
38.546756
38.546757
38.546759
38.546763
38.546768
38.546774
38.546780
38.546787
38.546794
38.546800
38.546806
38.546810
38.546813
38.546815
38.546815
38.546813
38.546810
38.546806
38.546800
38.546794
38.546787
38.546780
38.546774
38.546768
38.546763
38.546759
38.546757
38.546756
38.546757
38.546760
38.546763
38.546767
38.546772
38.546777
38.546782
38.546786
38.546789
38.546791
38.546793
38.546793
38.346789
38.346789
38.346788
38.346786
38.346784
38.346780
38.346777
38.346773
38.346770
38.346766
38.346764
38.346762
38.346762
38.346762
38.346764
38.346767
38.346771
38.346776
38.346781
38.346787
38.346792
38.346797
38.346801
38.346805
38.346807
38.346808
38.346808
38.346807
38.346805
38.346801
38.346797
38.346792
38.346787
38.346781
38.346776
38.346771
38.346767
38.346764
38.346762
38.346762
38.346762
38.346764
38.346766
38.346770
38.346773
38.346777
38.346780
38.346784
38.346786
38.346788
38.346789
38.346789
38.146786
38.146786
38.146785
38.146784
38.146782
38.146780
38.146777
38.146774
38.146771
38.146769
38.146767
38.146766
38.146766
38.146766
38.146768
38.146771
38.146774
38.146778
38.146782
38.146786
38.146790
38.146794
38.146798
38.146801
38.146803
38.146804
38.146804
38.146803
38.146801
38.146798
38.146794
38.146790
38.146786
38.146782
38.146778
38.146774
38.146771
38.146768
38.146766
38.146766
38.146766
38.146767
38.146769
38.146771
38.146774
38.146777
38.146780
38.146782
38.146784
38.146785
38.146786
38.146786
37.946784
37.946784
37.946783
37.946782
37.946781
37.946779
37.946777
37.946775
37.946773
37.946771
37.946770
37.946769
37.946769
37.946770
37.946771
37.946773
37.946776
37.946779
37.946782
37.946786
37.946789
37.946792
37.946795
37.946797
37.946799
37.946800
37.946800
37.946799
37.946797
37.946795
37.946792
37.946789
37.946786
37.946782
37.946779
37.946776
37.946773
37.946771
37.946770
37.946769
37.946769
37.946770
37.946771
37.946773
37.946775
37.946777
37.946779
37.946781
37.946782
37.946783
37.946784
37.946784
37.746782
37.746782
37.746782
37.746781
37.746780
37.746778
37.746777
37.746775
37.746774
37.746773
37.746772
37.746771
37.746771
37.746772
37.746773
37.746775
37.746777
37.746780
37.746782
37.746785
37.746788
37.746791
37.746793
37.746795
37.746796
37.746797
37.746797
37.746796
37.746795
37.746793
37.746791
37.746788
37.746785
37.746782
37.746780
37.746777
37.746775
37.746773
37.746772
37.746771
37.746771
37.746772
37.746773
37.746774
37.746775
37.746777
37.746778
37.746780
37.746781
37.746782
37.746782
37.746782
37.546781
37.546781
37.546781
37.546780
37.546779
37.546778
37.546777
37.546776
37.546775
37.546774
37.546773
37.546773
37.546773
37.546774
37.546775
37.546777
37.546778
37.546780
37.546783
37.546785
37.546787
37.546789
37.546791
37.546793
37.546794
37.546794
37.546794
37.546794
37.546793
37.546791
37.546789
37.546787
37.546785
37.546783
37.546780
37.546778
37.546777
37.546775
37.546774
37.546773
37.546773
37.546773
37.546774
37.546775
37.546776
37.546777
37.546778
37.546779
37.546780
37.546781
37.546781
37.546781
37.346780
37.346780
37.346780
37.346779
37.346779
37.346778
37.346777
37.346776
37.346776
37.346775
37.346775
37.346775
37.346775
37.346776
37.346776
37.346778
37.346779
37.346781
37.346783
37.346785
37.346787
37.346788
37.346790
37.346791
37.346792
37.346792
37.346792
37.346792
37.346791
37.346790
37.346788
37.346787
37.346785
37.346783
37.346781
37.346779
37.346778
37.346776
37.346776
37.346775
37.346775
37.346775
37.346775
37.346776
37.346776
37.346777
37.346778
37.346779
37.346779
37.346780
37.346780
37.346780
37.146779
37.146779
37.146779
37.146779
37.146778
37.146778
37.146777
37.146777
37.146776
37.146776
37.146776
37.146776
37.146776
37.146777
37.146778
37.146779
37.146780
37.146781
37.146783
37.146785
37.146786
37.146787
37.146789
37.146790
37.146790
37.146791
37.146791
37.146790
37.146790
37.146789
37.146787
37.146786
37.146785
37.146783
37.146781
37.146780
37.146779
37.146778
37.146777
37.146776
37.146776
37.146776
37.146776
37.146776
37.146777
37.146777
37.146778
37.146778
37.146779
37.146779
37.146779
37.146779
36.946779
36.946779
36.946778
36.946778
36.946778
36.946778
36.946777
36.946777
36.946777
36.946776
36.946776
36.946777
36.946777
36.946778
36.946778
36.946779
36.946781
36.946782
36.946783
36.946784
36.946786
36.946787
36.946788
36.946789
36.946789
36.946789
36.946789
36.946789
36.946789
36.946788
36.946787
36.946786
36.946784
36.946783
36.946782
36.946781
36.946779
36.946778
36.946778
36.946777
36.946777
36.946776
36.946776
36.946777
36.946777
36.946777
36.946778
36.946778
36.946778
36.946778
36.946779
36.946779
36.746778
36.746778
36.746778
36.746778
36.746778
36.746777
36.746777
36.746777
36.746777
36.746777
36.746777
36.746777
36.746778
36.746778
36.746779
36.746780
36.746781
36.746782
36.746783
36.746784
36.746785
36.746786
36.746787
36.746788
36.746788
36.746789
36.746789
36.746788
36.746788
36.746787
36.746786
36.746785
36.746784
36.746783
36.746782
36.746781
36.746780
36.746779
36.746778
36.746778
36.746777
36.746777
36.746777
36.746777
36.746777
36.746777
36.746777
36.746778
36.746778
36.746778
36.746778
36.746778
36.546778
36.546778
36.546778
36.546778
36.546777
36.546777
36.546777
36.546777
36.546777
36.546777
36.546778
36.546778
36.546778
36.546779
36.546780
36.546780
36.546781
36.546782
36.546783
36.546784
36.546785
36.546786
36.546787
36.546787
36.546788
36.546788
36.546788
36.546788
36.546787
36.546787
36.546786
36.546785
36.546784
36.546783
36.546782
36.546781
36.546780
36.546780
36.546779
36.546778
36.546778
36.546778
36.546777
36.546777
36.546777
36.546777
36.546777
36.546777
36.546778
36.546778
36.546778
36.546778
36.346777
36.346777
36.346777
36.346777
36.346777
36.346777
36.346777
36.346777
36.346777
36.346778
36.346778
36.346778
36.346779
36.346779
36.346780
36.346781
36.346782
36.346782
36.346783
36.346784
36.346785
36.346786
36.346786
36.346787
36.346787
36.346787
36.346787
36.346787
36.346787
36.346786
36.346786
36.346785
36.346784
36.346783
36.346782
36.346782
36.346781
36.346780
36.346779
36.346779
36.346778
36.346778
36.346778
36.346777
36.346777
36.346777
36.346777
36.346777
36.346777
36.346777
36.346777
36.346777
36.146777
36.146777
36.146777
36.146777
36.146777
36.146777
36.146777
36.146777
36.146777
36.146778
36.146778
36.146779
36.146779
36.146780
36.146780
36.146781
36.146782
36.146783
36.146783
36.146784
36.146785
36.146786
36.146786
36.146787
36.146787
36.146787
36.146787
36.146787
36.146787
36.146786
36.146786
36.146785
36.146784
36.146783
36.146783
36.146782
36.146781
36.146780
36.146780
36.146779
36.146779
36.146778
36.146778
36.146777
36.146777
36.146777
36.146777
36.146777
36.146777
36.146777
36.146777
36.146777
35.946777
35.946777
35.946777
35.946777
35.946777
35.946777
35.946777
35.946777
35.946778
35.946778
35.946778
35.946779
35.946779
35.946780
35.946781
35.946781
35.946782
35.946783
35.946784
35.946784
35.946785
35.946786
35.946786
35.946786
35.946787
35.946787
35.946787
35.946787
35.946786
35.946786
35.946786
35.946785
35.946784
35.946784
35.946783
35.946782
35.946781
35.946781
35.946780
35.946779
35.946779
35.946778
35.946778
35.946778
35.946777
35.946777
35.946777
35.946777
35.946777
35.946777
35.946777
35.946777
35.746776
35.746776
35.746776
35.746776
35.746776
35.746777
35.746777
35.746777
35.746777
35.746778
35.746778
35.746779
35.746779
35.746780
35.746781
35.746782
35.746782
35.746783
35.746784
35.746784
35.746785
35.746786
35.746786
35.746786
35.746787
35.746787
35.746787
35.746787
35.746786
35.746786
35.746786
35.746785
35.746784
35.746784
35.746783
35.746782
35.746782
35.746781
35.746780
35.746779
35.746779
35.746778
35.746778
35.746777
35.746777
35.746777
35.746777
35.746776
35.746776
35.746776
35.746776
35.746776
35.546776
35.546776
35.546776
35.546776
35.546776
35.546776
35.546777
35.546777
35.546777
35.546778
35.546778
35.546779
35.546780
35.546780
35.546781
35.546782
35.546782
35.546783
35.546784
35.546785
35.546785
35.546786
35.546786
35.546787
35.546787
35.546787
35.546787
35.546787
35.546787
35.546786
35.546786
35.546785
35.546785
35.546784
35.546783
35.546782
35.546782
35.546781
35.546780
35.546780
35.546779
35.546778
35.546778
35.546777
35.546777
35.546777
35.546776
35.546776
35.546776
35.546776
35.546776
35.546776
35.346775
35.346775
35.346775
35.346776
35.346776
35.346776
35.346776
35.346777
35.346777
35.346778
35.346778
35.346779
35.346780
35.346780
35.346781
35.346782
35.346783
35.346783
35.346784
35.346785
35.346785
35.346786
35.346786
35.346787
35.346787
35.346787
35.346787
35.346787
35.346787
35.346786
35.346786
35.346785
35.346785
35.346784
35.346783
35.346783
35.346782
35.346781
35.346780
35.346780
35.346779
35.346778
35.346778
35.346777
35.346777
35.346776
35.346776
35.346776
35.346776
35.346775
35.346775
35.346775
35.146775
35.146775
35.146775
35.146775
35.146775
35.146776
35.146776
35.146776
35.146777
35.146778
35.146778
35.146779
35.146780
35.146780
35.146781
35.146782
35.146783
35.146784
35.146784
35.146785
35.146786
35.146786
35.146787
35.146787
35.146787
35.146788
35.146788
35.146787
35.146787
35.146787
35.146786
35.146786
35.146785
35.146784
35.146784
35.146783
35.146782
35.146781
35.146780
35.146780
35.146779
35.146778
35.146778
35.146777
35.146776
35.146776
35.146776
35.146775
35.146775
35.146775
35.146775
35.146775
34.946774
34.946774
34.946774
34.946774
34.946775
34.946775
34.946776
34.946776
34.946777
34.946777
34.946778
34.946779
34.946780
34.946781
34.946781
34.946782
34.946783
34.946784
34.946785
34.946786
34.946786
34.946787
34.946787
34.946788
34.946788
34.946788
34.946788
34.946788
34.946788
34.946787
34.946787
34.946786
34.946786
34.946785
34.946784
34.946783
34.946782
34.946781
34.946781
34.946780
34.946779
34.946778
34.946777
34.946777
34.946776
34.946776
34.946775
34.946775
34.946774
34.946774
34.946774
34.946774
34.746773
34.746773
34.746774
34.746774
34.746774
34.746775
34.746775
34.746776
34.746776
34.746777
34.746778
34.746779
34.746780
34.746781
34.746782
34.746783
34.746783
34.746784
34.746785
34.746786
34.746787
34.746787
34.746788
34.746788
34.746788
34.746789
34.746789
34.746788
34.746788
34.746788
34.746787
34.746787
34.746786
34.746785
34.746784
34.746783
34.746783
34.746782
34.746781
34.746780
34.746779
34.746778
34.746777
34.746776
34.746776
34.746775
34.746775
34.746774
34.746774
34.746774
34.746773
34.746773
34.546773
34.546773
34.546773
34.546773
34.546773
34.546774
34.546774
34.546775
34.546776
34.546777
34.546778
34.546779
34.546780
34.546781
34.546782
34.546783
34.546784
34.546785
34.546786
34.546787
34.546787
34.546788
34.546788
34.546789
34.546789
34.546789
34.546789
34.546789
34.546789
34.546788
34.546788
34.546787
34.546787
34.546786
34.546785
34.546784
34.546783
34.546782
34.546781
34.546780
34.546779
34.546778
34.546777
34.546776
34.546775
34.546774
34.546774
34.546773
34.546773
34.546773
34.546773
34.546773
34.346772
34.346772
34.346772
34.346772
34.346773
34.346773
34.346774
34.346775
34.346775
34.346776
34.346777
34.346778
34.346780
34.346781
34.346782
34.346783
34.346784
34.346785
34.346786
34.346787
34.346788
34.346789
34.346789
34.346790
34.346790
34.346790
34.346790
34.346790
34.346790
34.346789
34.346789
34.346788
34.346787
34.346786
34.346785
34.346784
34.346783
34.346782
34.346781
34.346780
34.346778
34.346777
34.346776
34.346775
34.346775
34.346774
34.346773
34.346773
34.346772
34.346772
34.346772
34.346772
34.146771
34.146771
34.146771
34.146771
34.146772
34.146772
34.146773
34.146774
34.146775
34.146776
34.146777
34.146778
34.146779
34.146781
34.146782
34.146783
34.146785
34.146786
34.146787
34.146788
34.146789
34.146790
34.146790
34.146791
34.146791
34.146791
34.146791
34.146791
34.146791
34.146790
34.146790
34.146789
34.146788
34.146787
34.146786
34.146785
34.146783
34.146782
34.146781
34.146779
34.146778
34.146777
34.146776
34.146775
34.146774
34.146773
34.146772
34.146772
34.146771
34.146771
34.146771
34.146771
33.946769
33.946769
33.946770
33.946770
33.946771
33.946771
33.946772
33.946773
33.946774
33.946775
33.946777
33.946778
33.946779
33.946781
33.946782
33.946784
33.946785
33.946786
33.946788
33.946789
33.946790
33.946791
33.946791
33.946792
33.946792
33.946792
33.946792
33.946792
33.946792
33.946791
33.946791
33.946790
33.946789
33.946788
33.946786
33.946785
33.946784
33.946782
33.946781
33.946779
33.946778
33.946777
33.946775
33.946774
33.946773
33.946772
33.946771
33.946771
33.946770
33.946770
33.946769
33.946769
33.746768
33.746768
33.746768
33.746769
33.746769
33.746770
33.746771
33.746772
33.746773
33.746775
33.746776
33.746778
33.746779
33.746781
33.746782
33.746784
33.746786
33.746787
33.746788
33.746790
33.746791
33.746792
33.746793
33.746793
33.746794
33.746794
33.746794
33.746794
33.746793
33.746793
33.746792
33.746791
33.746790
33.746788
33.746787
33.746786
33.746784
33.746782
33.746781
33.746779
33.746778
33.746776
33.746775
33.746773
33.746772
33.746771
33.746770
33.746769
33.746769
33.746768
33.746768
33.746768
33.546766
33.546766
33.546767
33.546767
33.546768
33.546769
33.546770
33.546771
33.546772
33.546774
33.546775
33.546777
33.546779
33.546781
33.546783
33.546784
33.546786
33.546788
33.546789
33.546791
33.546792
33.546793
33.546794
33.546795
33.546795
33.546795
33.546795
33.546795
33.546795
33.546794
33.546793
33.546792
33.546791
33.546789
33.546788
33.546786
33.546784
33.546783
33.546781
33.546779
33.546777
33.546775
33.546774
33.546772
33.546771
33.546770
33.546769
33.546768
33.546767
33.546767
33.546766
33.546766
33.346765
33.346765
33.346765
33.346765
33.346766
33.346767
33.346768
33.346770
33.346771
33.346773
33.346775
33.346777
33.346779
33.346781
33.346783
33.346785
33.346787
33.346789
33.346790
33.346792
33.346793
33.346795
33.346796
33.346796
33.346797
33.346797
33.346797
33.346797
33.346796
33.346796
33.346795
33.346793
33.346792
33.346790
33.346789
33.346787
33.346785
33.346783
33.346781
33.346779
33.346777
33.346775
33.346773
33.346771
33.346770
33.346768
33.346767
33.346766
33.346765
33.346765
33.346765
33.346765
33.146763
33.146763
33.146763
33.146763
33.146764
33.146765
33.146767
33.146768
33.146770
33.146772
33.146774
33.146776
33.146779
33.146781
33.146783
33.146785
33.146788
33.146790
33.146792
33.146793
33.146795
33.146796
33.146797
33.146798
33.146799
33.146799
33.146799
33.146799
33.146798
33.146797
33.146796
33.146795
33.146793
33.146792
33.146790
33.146788
33.146785
33.146783
33.146781
33.146779
33.146776
33.146774
33.146772
33.146770
33.146768
33.146767
33.146765
33.146764
33.146763
33.146763
33.146763
33.146763
32.946760
32.946760
32.946761
32.946761
32.946762
32.946763
32.946765
32.946767
32.946769
32.946771
32.946773
32.946776
32.946778
32.946781
32.946783
32.946786
32.946788
32.946791
32.946793
32.946795
32.946797
32.946798
32.946800
32.946800
32.946801
32.946801
32.946801
32.946801
32.946800
32.946800
32.946798
32.946797
32.946795
32.946793
32.946791
32.946788
32.946786
32.946783
32.946781
32.946778
32.946776
32.946773
32.946771
32.946769
32.946767
32.946765
32.946763
32.946762
32.946761
32.946761
32.946760
32.946760
32.746758
32.746758
32.746758
32.746759
32.746760
32.746761
32.746763
32.746765
32.746767
32.746770
32.746772
32.746775
32.746778
32.746781
32.746784
32.746787
32.746789
32.746792
32.746795
32.746797
32.746799
32.746801
32.746802
32.746803
32.746804
32.746804
32.746804
32.746804
32.746803
32.746802
32.746801
32.746799
32.746797
32.746795
32.746792
32.746789
32.746787
32.746784
32.746781
32.746778
32.746775
32.746772
32.746770
32.746767
32.746765
32.746763
32.746761
32.746760
32.746759
32.746758
32.746758
32.746758
32.546755
32.546755
32.546755
32.546756
32.546757
32.546759
32.546761
32.546763
32.546765
32.546768
32.546771
32.546774
32.546778
32.546781
32.546784
32.546787
32.546791
32.546794
32.546796
32.546799
32.546801
32.546803
32.546805
32.546806
32.546807
32.546807
32.546807
32.546807
32.546806
32.546805
32.546803
32.546801
32.546799
32.546796
32.546794
32.546791
32.546787
32.546784
32.546781
32.546778
32.546774
32.546771
32.546768
32.546765
32.546763
32.546761
32.546759
32.546757
32.546756
32.546755
32.546755
32.546755
32.346751
32.346751
32.346752
32.346752
32.346754
32.346756
32.346758
32.346760
32.346763
32.346766
32.346770
32.346773
32.346777
32.346781
32.346785
32.346788
32.346792
32.346795
32.346798
32.346801
32.346804
32.346806
32.346808
32.346809
32.346810
32.346811
32.346811
32.346810
32.346809
32.346808
32.346806
32.346804
32.346801
32.346798
32.346795
32.346792
32.346788
32.346785
32.346781
32.346777
32.346773
32.346770
32.346766
32.346763
32.346760
32.346758
32.346756
32.346754
32.346752
32.346752
32.346751
32.346751
32.146747
32.146747
32.146748
32.146749
32.146750
32.146752
32.146755
32.146758
32.146761
32.146765
32.146768
32.146772
32.146777
32.146781
32.146785
32.146789
32.146793
32.146797
32.146801
32.146804
32.146807
32.146809
32.146811
32.146813
32.146814
32.146815
32.146815
32.146814
32.146813
32.146811
32.146809
32.146807
32.146804
32.146801
32.146797
32.146793
32.146789
32.146785
32.146781
32.146777
32.146772
32.146768
32.146765
32.146761
32.146758
32.146755
32.146752
32.146750
32.146749
32.146748
32.146747
32.146747
31.946743
31.946743
31.946743
31.946745
31.946746
31.946749
31.946751
31.946755
31.946758
31.946762
31.946767
31.946771
31.946776
31.946781
31.946786
31.946790
31.946795
31.946799
31.946803
31.946807
31.946810
31.946813
31.946815
31.946817
31.946818
31.946819
31.946819
31.946818
31.946817
31.946815
31.946813
31.946810
31.946807
31.946803
31.946799
31.946795
31.946790
31.946786
31.946781
31.946776
31.946771
31.946767
31.946762
31.946758
31.946755
31.946751
31.946749
31.946746
31.946745
31.946743
31.946743
31.946743
31.746738
31.746738
31.746738
31.746740
31.746742
31.746744
31.746748
31.746751
31.746755
31.746760
31.746765
31.746770
31.746775
31.746781
31.746786
31.746792
31.746797
31.746802
31.746806
31.746810
31.746814
31.746817
31.746820
31.746822
31.746823
31.746824
31.746824
31.746823
31.746822
31.746820
31.746817
31.746814
31.746810
31.746806
31.746802
31.746797
31.746792
31.746786
31.746781
31.746775
31.746770
31.746765
31.746760
31.746755
31.746751
31.746748
31.746744
31.746742
31.746740
31.746738
31.746738
31.746738
31.546732
31.546732
31.546733
31.546734
31.546737
31.546740
31.546743
31.546747
31.546752
31.546757
31.546763
31.546769
31.546775
31.546781
31.546787
31.546793
31.546799
31.546804
31.546810
31.546814
31.546819
31.546822
31.546825
31.546827
31.546829
31.546830
31.546830
31.546829
31.546827
31.546825
31.546822
31.546819
31.546814
31.546810
31.546804
31.546799
31.546793
31.546787
31.546781
31.546775
31.546769
31.546763
31.546757
31.546752
31.546747
31.546743
31.546740
31.546737
31.546734
31.546733
31.546732
31.546732
31.346726
31.346726
31.346726
31.346728
31.346731
31.346734
31.346738
31.346743
31.346748
31.346754
31.346760
31.346767
31.346774
31.346781
31.346788
31.346795
31.346801
31.346808
31.346813
31.346819
31.346824
31.346828
31.346831
31.346834
31.346835
31.346836
31.346836
31.346835
31.346834
31.346831
31.346828
31.346824
31.346819
31.346813
31.346808
31.346801
31.346795
31.346788
31.346781
31.346774
31.346767
31.346760
31.346754
31.346748
31.346743
31.346738
31.346734
31.346731
31.346728
31.346726
31.346726
31.346726
31.146718
31.146718
31.146719
31.146721
31.146724
31.146728
31.146732
31.146738
31.146744
31.146751
31.146758
31.146765
31.146773
31.146781
31.146789
31.146796
31.146804
31.146811
31.146818
31.146824
31.146829
31.146834
31.146838
31.146841
31.146843
31.146844
31.146844
31.146843
31.146841
31.146838
31.146834
31.146829
31.146824
31.146818
31.146811
31.146804
31.146796
31.146789
31.146781
31.146773
31.146765
31.146758
31.146751
31.146744
31.146738
31.146732
31.146728
31.146724
31.146721
31.146719
31.146718
31.146718
30.946710
30.946710
30.946711
30.946713
30.946716
30.946721
30.946726
30.946732
30.946739
30.946747
30.946755
30.946763
30.946772
30.946781
30.946790
30.946799
30.946807
30.946815
30.946823
30.946830
30.946836
30.946841
30.946845
30.946848
30.946851
30.946852
30.946852
30.946851
30.946848
30.946845
30.946841
30.946836
30.946830
30.946823
30.946815
30.946807
30.946799
30.946790
30.946781
30.946772
30.946763
30.946755
30.946747
30.946739
30.946732