# vtk DataFile Version 3.0
PRESSURE
ASCII

DATASET RECTILINEAR_GRID
DIMENSIONS  52  200  1
X_COORDINATES    52 float
0.010000
0.030000
0.050000
0.070000
0.090000
0.110000
0.130000
0.150000
0.170000
0.190000
0.210000
0.230000
0.250000
0.270000
0.290000
0.310000
0.330000
0.350000
0.370000
0.390000
0.410000
0.430000
0.450000
0.470000
0.490000
0.510000
0.530000
0.550000
0.570000
0.590000
0.610000
0.630000
0.650000
0.670000
0.690000
0.710000
0.730000
0.750000
0.770000
0.790000
0.810000
0.830000
0.850000
0.870000
0.890000
0.910000
0.930000
0.950000
0.970000
0.990000
1.010000
1.030000
Y_COORDINATES    200 float
0.010000
0.030000
0.050000
0.070000
0.090000
0.110000
0.130000
0.150000
0.170000
0.190000
0.210000
0.230000
0.250000
0.270000
0.290000
0.310000
0.330000
0.350000
0.370000
0.390000
0.410000
0.430000
0.450000
0.470000
0.490000
0.510000
0.530000
0.550000
0.570000
0.590000
0.610000
0.630000
0.650000
0.670000
0.690000
0.710000
0.730000
0.750000
0.770000
0.790000
0.810000
0.830000
0.850000
0.870000
0.890000
0.910000
0.930000
0.950000
0.970000
0.990000
1.010000
1.030000
1.050000
1.070000
1.090000
1.110000
1.130000
1.150000
1.170000
1.190000
1.210000
1.230000
1.250000
1.270000
1.290000
1.310000
1.330000
1.350000
1.370000
1.390000
1.410000
1.430000
1.450000
1.470000
1.490000
1.510000
1.530000
1.550000
1.570000
1.590000
1.610000
1.630000
1.650000
1.670000
1.690000
1.710000
1.730000
1.750000
1.770000
1.790000
1.810000
1.830000
1.850000
1.870000
1.890000
1.910000
1.930000
1.950000
1.970000
1.990000
2.010000
2.030000
2.050000
2.070000
2.090000
2.110000
2.130000
2.150000
2.170000
2.190000
2.210000
2.230000
2.250000
2.270000
2.290000
2.310000
2.330000
2.350000
2.370000
2.390000
2.410000
2.430000
2.450000
2.470000
2.490000
2.510000
2.530000
2.550000
2.570000
2.590000
2.610000
2.630000
2.650000
2.670000
2.690000
2.710000
2.730000
2.750000
2.770000
2.790000
2.810000
2.830000
2.850000
2.870000
2.890000
2.910000
2.930000
2.950000
2.970000
2.990000
3.010000
3.030000
3.050000
3.070000
3.090000
3.110000
3.130000
3.150000
3.170000
3.190000
3.210000
3.230000
3.250000
3.270000
3.290000
3.310000
3.330000
3.350000
3.370000
3.390000
3.410000
3.430000
3.450000
3.470000
3.490000
3.510000
3.530000
3.550000
3.570000
3.590000
3.610000
3.630000
3.650000
3.670000
3.690000
3.710000
3.730000
3.750000
3.770000
3.790000
3.810000
3.830000
3.850000
3.870000
3.890000
3.910000
3.930000
3.950000
3.970000
3.990000
Z_COORDINATES    1 float
0.000000
POINT_DATA 10400
SCALARS PRESSURE float
LOOKUP_TABLE default
42.148977
42.148990
42.149207
42.149503
42.149756
42.150125
42.150993
42.152742
42.155151
42.156829
42.157612
42.157990
42.158153
42.158168
42.158043
42.157702
42.156998
42.155728
42.154282
42.153015
42.151714
42.150499
42.149436
42.148436
42.147757
42.147428
42.147428
42.147757
42.148436
42.149436
42.150499
42.151714
42.153015
42.154282
42.155728
42.156998
42.157702
42.158043
42.158168
42.158153
42.157990
42.157612
42.156829
42.155151
42.152742
42.150993
42.150125
42.149756
42.149503
42.149207
42.148990
42.148977
41.783987
41.783976
41.783937
41.783897
41.783897
41.783928
41.783898
41.783625
41.783038
41.782687
41.782663
41.782690
41.782707
41.782711
41.782700
41.782700
41.782761
41.783016
41.783257
41.783414
41.783614
41.783756
41.783862
41.784060
41.784174
41.784215
41.784215
41.784174
41.784060
41.783862
41.783756
41.783614
41.783414
41.783257
41.783016
41.782761
41.782700
41.782700
41.782711
41.782707
41.782690
41.782663
41.782687
41.783038
41.783625
41.783898
41.783928
41.783897
41.783897
41.783937
41.783976
41.783987
41.542667
41.542666
41.542597
41.542517
41.542489
41.542461
41.542294
41.541825
41.541137
41.540711
41.540533
41.540457
41.540430
41.540427
41.540446
41.540513
41.540679
41.541007
41.541397
41.541694
41.541994
41.542289
41.542543
41.542770
41.542932
41.543015
41.543015
41.542932
41.542770
41.542543
41.542289
41.541994
41.541694
41.541397
41.541007
41.540679
41.540513
41.540446
41.540427
41.540430
41.540457
41.540533
41.540711
41.541137
41.541825
41.542294
41.542461
41.542489
41.542517
41.542597
41.542666
41.542667
41.339207
41.339206
41.339170
41.339120
41.339080
41.339040
41.338950
41.338759
41.338512
41.338350
41.338267
41.338226
41.338208
41.338206
41.338218
41.338254
41.338329
41.338458
41.338619
41.338752
41.338881
41.339013
41.339134
41.339235
41.339310
41.339349
41.339349
41.339310
41.339235
41.339134
41.339013
41.338881
41.338752
41.338619
41.338458
41.338329
41.338254
41.338218
41.338206
41.338208
41.338226
41.338267
41.338350
41.338512
41.338759
41.338950
41.339040
41.339080
41.339120
41.339170
41.339206
41.339207
41.140270
41.140270
41.140248
41.140216
41.140186
41.140157
41.140111
41.140032
41.139938
41.139873
41.139837
41.139818
41.139809
41.139808
41.139815
41.139834
41.139870
41.139926
41.139994
41.140055
41.140114
41.140175
41.140231
41.140278
41.140313
41.140333
41.140333
41.140313
41.140278
41.140231
41.140175
41.140114
41.140055
41.139994
41.139926
41.139870
41.139834
41.139815
41.139808
41.139809
41.139818
41.139837
41.139873
41.139938
41.140032
41.140111
41.140157
41.140186
41.140216
41.140248
41.140270
41.140270
40.940715
40.940715
40.940701
40.940681
40.940661
40.940639
40.940604
40.940551
40.940492
40.940448
40.940422
40.940409
40.940403
40.940403
40.940409
40.940423
40.940448
40.940486
40.940532
40.940575
40.940617
40.940659
40.940698
40.940729
40.940753
40.940765
40.940765
40.940753
40.940729
40.940698
40.940659
40.940617
40.940575
40.940532
40.940486
40.940448
40.940423
40.940409
40.940403
40.940403
40.940409
40.940422
40.940448
40.940492
40.940551
40.940604
40.940639
40.940661
40.940681
40.940701
40.940715
40.940715
40.740768
40.740768
40.740760
40.740746
40.740731
40.740711
40.740682
40.740640
40.740596
40.740560
40.740538
40.740525
40.740519
40.740520
40.740525
40.740538
40.740560
40.740590
40.740626
40.740662
40.740697
40.740731
40.740762
40.740787
40.740805
40.740815
40.740815
40.740805
40.740787
40.740762
40.740731
40.740697
40.740662
40.740626
40.740590
40.740560
40.740538
40.740525
40.740520
40.740519
40.740525
40.740538
40.740560
40.740596
40.740640
40.740682
40.740711
40.740731
40.740746
40.740760
40.740768
40.740768
40.540752
40.540752
40.540746
40.540736
40.540723
40.540706
40.540682
40.540650
40.540617
40.540588
40.540569
40.540557
40.540552
40.540552
40.540558
40.540569
40.540587
40.540612
40.540640
40.540670
40.540699
40.540726
40.540751
40.540771
40.540785
40.540793
40.540793
40.540785
40.540771
40.540751
40.540726
40.540699
40.540670
40.540640
40.540612
40.540587
40.540569
40.540558
40.540552
40.540552
40.540557
40.540569
40.540588
40.540617
40.540650
40.540682
40.540706
40.540723
40.540736
40.540746
40.540752
40.540752
40.340736
40.340736
40.340732
40.340724
40.340714
40.340699
40.340679
40.340655
40.340630
40.340608
40.340592
40.340582
40.340577
40.340577
40.340582
40.340592
40.340607
40.340627
40.340650
40.340673
40.340697
40.340719
40.340739
40.340755
40.340766
40.340772
40.340772
40.340766
40.340755
40.340739
40.340719
40.340697
40.340673
40.340650
40.340627
40.340607
40.340592
40.340582
40.340577
40.340577
40.340582
40.340592
40.340608
40.340630
40.340655
40.340679
40.340699
40.340714
40.340724
40.340732
40.340736
40.340736
40.140725
40.140725
40.140721
40.140715
40.140706
40.140694
40.140678
40.140660
40.140641
40.140624
40.140612
40.140603
40.140599
40.140599
40.140603
40.140612
40.140624
40.140640
40.140658
40.140677
40.140696
40.140714
40.140729
40.140742
40.140751
40.140755
40.140755
40.140751
40.140742
40.140729
40.140714
40.140696
40.140677
40.140658
40.140640
40.140624
40.140612
40.140603
40.140599
40.140599
40.140603
40.140612
40.140624
40.140641
40.140660
40.140678
40.140694
40.140706
40.140715
40.140721
40.140725
40.140725
39.940715
39.940715
39.940712
39.940707
39.940700
39.940690
39.940677
39.940663
39.940649
39.940636
39.940626
39.940619
39.940616
39.940616
39.940619
39.940626
39.940636
39.940649
39.940663
39.940679
39.940694
39.940708
39.940721
39.940731
39.940738
39.940741
39.940741
39.940738
39.940731
39.940721
39.940708
39.940694
39.940679
39.940663
39.940649
39.940636
39.940626
39.940619
39.940616
39.940616
39.940619
39.940626
39.940636
39.940649
39.940663
39.940677
39.940690
39.940700
39.940707
39.940712
39.940715
39.940715
39.740706
39.740706
39.740704
39.740700
39.740694
39.740686
39.740676
39.740665
39.740654
39.740644
39.740636
39.740631
39.740628
39.740628
39.740631
39.740637
39.740645
39.740655
39.740667
39.740679
39.740691
39.740703
39.740713
39.740721
39.740727
39.740729
39.740729
39.740727
39.740721
39.740713
39.740703
39.740691
39.740679
39.740667
39.740655
39.740645
39.740637
39.740631
39.740628
39.740628
39.740631
39.740636
39.740644
39.740654
39.740665
39.740676
39.740686
39.740694
39.740700
39.740704
39.740706
39.740706
39.540699
39.540699
39.540697
39.540694
39.540689
39.540682
39.540675
39.540666
39.540658
39.540650
39.540644
39.540640
39.540638
39.540638
39.540641
39.540645
39.540652
39.540660
39.540669
39.540679
39.540689
39.540698
39.540706
39.540713
39.540717
39.540719
39.540719
39.540717
39.540713
39.540706
39.540698
39.540689
39.540679
39.540669
39.540660
39.540652
39.540645
39.540641
39.540638
39.540638
39.540640
39.540644
39.540650
39.540658
39.540666
39.540675
39.540682
39.540689
39.540694
39.540697
39.540699
39.540699
39.340693
39.340693
39.340692
39.340689
39.340685
39.340680
39.340674
39.340667
39.340661
39.340655
39.340650
39.340647
39.340645
39.340646
39.340648
39.340652
39.340657
39.340664
39.340671
39.340679
39.340687
39.340694
39.340701
39.340706
39.340709
39.340711
39.340711
39.340709
39.340706
39.340701
39.340694
39.340687
39.340679
39.340671
39.340664
39.340657
39.340652
39.340648
39.340646
39.340645
39.340647
39.340650
39.340655
39.340661
39.340667
39.340674
39.340680
39.340685
39.340689
39.340692
39.340693
39.340693
39.140688
39.140688
39.140687
39.140685
39.140682
39.140678
39.140673
39.140668
39.140663
39.140659
39.140655
39.140652
39.140651
39.140652
39.140653
39.140656
39.140661
39.140666
39.140672
39.140679
39.140685
39.140691
39.140696
39.140700
39.140703
39.140705
39.140705
39.140703
39.140700
39.140696
39.140691
39.140685
39.140679
39.140672
39.140666
39.140661
39.140656
39.140653
39.140652
39.140651
39.140652
39.140655
39.140659
39.140663
39.140668
39.140673
39.140678
39.140682
39.140685
39.140687
39.140688
39.140688
38.940685
38.940685
38.940684
38.940682
38.940680
38.940676
38.940673
38.940669
38.940665
38.940661
38.940659
38.940657
38.940656
38.940656
38.940658
38.940660
38.940664
38.940668
38.940673
38.940678
38.940683
38.940688
38.940692
38.940696
38.940698
38.940699
38.940699
38.940698
38.940696
38.940692
38.940688
38.940683
38.940678
38.940673
38.940668
38.940664
38.940660
38.940658
38.940656
38.940656
38.940657
38.940659
38.940661
38.940665
38.940669
38.940673
38.940676
38.940680
38.940682
38.940684
38.940685
38.940685
38.740682
38.740682
38.740681
38.740680
38.740678
38.740675
38.740672
38.740669
38.740666
38.740664
38.740662
38.740660
38.740660
38.740660
38.740661
38.740664
38.740666
38.740670
38.740674
38.740678
38.740682
38.740686
38.740689
38.740692
38.740694
38.740695
38.740695
38.740694
38.740692
38.740689
38.740686
38.740682
38.740678
38.740674
38.740670
38.740666
38.740664
38.740661
38.740660
38.740660
38.740660
38.740662
38.740664
38.740666
38.740669
38.740672
38.740675
38.740678
38.740680
38.740681
38.740682
38.740682
38.540680
38.540680
38.540679
38.540678
38.540676
38.540674
38.540672
38.540670
38.540668
38.540666
38.540664
38.540663
38.540663
38.540663
38.540664
38.540666
38.540668
38.540671
38.540674
38.540678
38.540681
38.540684
38.540687
38.540689
38.540691
38.540691
38.540691
38.540691
38.540689
38.540687
38.540684
38.540681
38.540678
38.540674
38.540671
38.540668
38.540666
38.540664
38.540663
38.540663
38.540663
38.540664
38.540666
38.540668
38.540670
38.540672
38.540674
38.540676
38.540678
38.540679
38.540680
38.540680
38.340678
38.340678
38.340677
38.340676
38.340675
38.340674
38.340672
38.340670
38.340669
38.340667
38.340666
38.340665
38.340665
38.340665
38.340666
38.340668
38.340670
38.340672
38.340675
38.340678
38.340680
38.340683
38.340685
38.340687
38.340688
38.340689
38.340689
38.340688
38.340687
38.340685
38.340683
38.340680
38.340678
38.340675
38.340672
38.340670
38.340668
38.340666
38.340665
38.340665
38.340665
38.340666
38.340667
38.340669
38.340670
38.340672
38.340674
38.340675
38.340676
38.340677
38.340678
38.340678
38.140676
38.140676
38.140676
38.140675
38.140674
38.140673
38.140672
38.140671
38.140669
38.140668
38.140667
38.140667
38.140667
38.140667
38.140668
38.140669
38.140671
38.140673
38.140675
38.140677
38.140680
38.140682
38.140684
38.140685
38.140686
38.140686
38.140686
38.140686
38.140685
38.140684
38.140682
38.140680
38.140677
38.140675
38.140673
38.140671
38.140669
38.140668
38.140667
38.140667
38.140667
38.140667
38.140668
38.140669
38.140671
38.140672
38.140673
38.140674
38.140675
38.140676
38.140676
38.140676
37.940675
37.940675
37.940675
37.940674
37.940674
37.940673
37.940672
37.940671
37.940670
37.940669
37.940669
37.940668
37.940668
37.940669
37.940670
37.940671
37.940672
37.940674
37.940676
37.940677
37.940679
37.940681
37.940682
37.940683
37.940684
37.940685
37.940685
37.940684
37.940683
37.940682
37.940681
37.940679
37.940677
37.940676
37.940674
37.940672
37.940671
37.940670
37.940669
37.940668
37.940668
37.940669
37.940669
37.940670
37.940671
37.940672
37.940673
37.940674
37.940674
37.940675
37.940675
37.940675
37.740674
37.740674
37.740674
37.740674
37.740673
37.740673
37.740672
37.740671
37.740670
37.740670
37.740670
37.740669
37.740670
37.740670
37.740671
37.740672
37.740673
37.740674
37.740676
37.740677
37.740679
37.740680
37.740681
37.740682
37.740683
37.740683
37.740683
37.740683
37.740682
37.740681
37.740680
37.740679
37.740677
37.740676
37.740674
37.740673
37.740672
37.740671
37.740670
37.740670
37.740669
37.740670
37.740670
37.740670
37.740671
37.740672
37.740673
37.740673
37.740674
37.740674
37.740674
37.740674
37.540674
37.540674
37.540673
37.540673
37.540673
37.540672
37.540672
37.540671
37.540671
37.540670
37.540670
37.540670
37.540670
37.540671
37.540672
37.540672
37.540673
37.540675
37.540676
37.540677
37.540678
37.540680
37.540681
37.540681
37.540682
37.540682
37.540682
37.540682
37.540681
37.540681
37.540680
37.540678
37.540677
37.540676
37.540675
37.540673
37.540672
37.540672
37.540671
37.540670
37.540670
37.540670
37.540670
37.540671
37.540671
37.540672
37.540672
37.540673
37.540673
37.540673
37.540674
37.540674
37.340673
37.340673
37.340673
37.340673
37.340672
37.340672
37.340672
37.340671
37.340671
37.340671
37.340671
37.340671
37.340671
37.340672
37.340672
37.340673
37.340674
37.340675
37.340676
37.340677
37.340678
37.340679
37.340680
37.340681
37.340681
37.340681
37.340681
37.340681
37.340681
37.340680
37.340679
37.340678
37.340677
37.340676
37.340675
37.340674
37.340673
37.340672
37.340672
37.340671
37.340671
37.340671
37.340671
37.340671
37.340671
37.340672
37.340672
37.340672
37.340673
37.340673
37.340673
37.340673
37.140672
37.140672
37.140672
37.140672
37.140672
37.140672
37.140672
37.140671
37.140671
37.140671
37.140671
37.140671
37.140672
37.140672
37.140673
37.140674
37.140674
37.140675
37.140676
37.140677
37.140678
37.140679
37.140680
37.140680
37.140681
37.140681
37.140681
37.140681
37.140680
37.140680
37.140679
37.140678
37.140677
37.140676
37.140675
37.140674
37.140674
37.140673
37.140672
37.140672
37.140671
37.140671
37.140671
37.140671
37.140671
37.140672
37.140672
37.140672
37.140672
37.140672
37.140672
37.140672
36.940672
36.940672
36.940672
36.940672
36.940672
36.940672
36.940671
36.940671
36.940671
36.940671
36.940672
36.940672
36.940672
36.940673
36.940673
36.940674
36.940675
36.940676
36.940676
36.940677
36.940678
36.940679
36.940679
36.940680
36.940680
36.940680
36.940680
36.940680
36.940680
36.940679
36.940679
36.940678
36.940677
36.940676
36.940676
36.940675
36.940674
36.940673
36.940673
36.940672
36.940672
36.940672
36.940671
36.940671
36.940671
36.940671
36.940672
36.940672
36.940672
36.940672
36.940672
36.940672
36.740671
36.740671
36.740671
36.740671
36.740671
36.740671
36.740671
36.740671
36.740671
36.740672
36.740672
36.740672
36.740673
36.740673
36.740674
36.740674
36.740675
36.740676
36.740677
36.740677
36.740678
36.740679
36.740679
36.740680
36.740680
36.740680
36.740680
36.740680
36.740680
36.740679
36.740679
36.740678
36.740677
36.740677
36.740676
36.740675
36.740674
36.740674
36.740673
36.740673
36.740672
36.740672
36.740672
36.740671
36.740671
36.740671
36.740671
36.740671
36.740671
36.740671
36.740671
36.740671
36.540671
36.540671
36.540671
36.540671
36.540671
36.540671
36.540671
36.540671
36.540671
36.540672
36.540672
36.540672
36.540673
36.540673
36.540674
36.540675
36.540675
36.540676
36.540677
36.540677
36.540678
36.540679
36.540679
36.540680
36.540680
36.540680
36.540680
36.540680
36.540680
36.540679
36.540679
36.540678
36.540677
36.540677
36.540676
36.540675
36.540675
36.540674
36.540673
36.540673
36.540672
36.540672
36.540672
36.540671
36.540671
36.540671
36.540671
36.540671
36.540671
36.540671
36.540671
36.540671
36.340670
36.340670
36.340671
36.340671
36.340671
36.340671
36.340671
36.340671
36.340671
36.340672
36.340672
36.340672
36.340673
36.340674
36.340674
36.340675
36.340676
36.340676
36.340677
36.340678
36.340678
36.340679
36.340679
36.340680
36.340680
36.340680
36.340680
36.340680
36.340680
36.340679
36.340679
36.340678
36.340678
36.340677
36.340676
36.340676
36.340675
36.340674
36.340674
36.340673
36.340672
36.340672
36.340672
36.340671
36.340671
36.340671
36.340671
36.340671
36.340671
36.340671
36.340670
36.340670
36.140670
36.140670
36.140670
36.140670
36.140670
36.140670
36.140671
36.140671
36.140671
36.140672
36.140672
36.140673
36.140673
36.140674
36.140674
36.140675
36.140676
36.140677
36.140677
36.140678
36.140679
36.140679
36.140680
36.140680
36.140680
36.140680
36.140680
36.140680
36.140680
36.140680
36.140679
36.140679
36.140678
36.140677
36.140677
36.140676
36.140675
36.140674
36.140674
36.140673
36.140673
36.140672
36.140672
36.140671
36.140671
36.140671
36.140670
36.140670
36.140670
36.140670
36.140670
36.140670
35.940669
35.940669
35.940670
35.940670
35.940670
35.940670
35.940670
35.940671
35.940671
35.940671
35.940672
35.940673
35.940673
35.940674
35.940675
35.940675
35.940676
35.940677
35.940678
35.940678
35.940679
35.940679
35.940680
35.940680
35.940680
35.940680
35.940680
35.940680
35.940680
35.940680
35.940679
35.940679
35.940678
35.940678
35.940677
35.940676
35.940675
35.940675
35.940674
35.940673
35.940673
35.940672
35.940671
35.940671
35.940671
35.940670
35.940670
35.940670
35.940670
35.940670
35.940669
35.940669
35.740669
35.740669
35.740669
35.740669
35.740669
35.740670
35.740670
35.740670
35.740671
35.740671
35.740672
35.740673
35.740673
35.740674
35.740675
35.740676
35.740676
35.740677
35.740678
35.740679
35.740679
35.740680
35.740680
35.740680
35.740681
35.740681
35.740681
35.740681
35.740680
35.740680
35.740680
35.740679
35.740679
35.740678
35.740677
35.740676
35.740676
35.740675
35.740674
35.740673
35.740673
35.740672
35.740671
35.740671
35.740670
35.740670
35.740670
35.740669
35.740669
35.740669
35.740669
35.740669
35.540668
35.540668
35.540668
35.540668
35.540669
35.540669
35.540669
35.540670
35.540670
35.540671
35.540672
35.540673
35.540673
35.540674
35.540675
35.540676
35.540677
35.540677
35.540678
35.540679
35.540680
35.540680
35.540681
35.540681
35.540681
35.540681
35.540681
35.540681
35.540681
35.540681
35.540680
35.540680
35.540679
35.540678
35.540677
35.540677
35.540676
35.540675
35.540674
35.540673
35.540673
35.540672
35.540671
35.540670
35.540670
35.540669
35.540669
35.540669
35.540668
35.540668
35.540668
35.540668
35.340667
35.340667
35.340668
35.340668
35.340668
35.340668
35.340669
35.340669
35.340670
35.340671
35.340672
35.340672
35.340673
35.340674
35.340675
35.340676
35.340677
35.340678
35.340679
35.340679
35.340680
35.340681
35.340681
35.340682
35.340682
35.340682
35.340682
35.340682
35.340682
35.340681
35.340681
35.340680
35.340679
35.340679
35.340678
35.340677
35.340676
35.340675
35.340674
35.340673
35.340672
35.340672
35.340671
35.340670
35.340669
35.340669
35.340668
35.340668
35.340668
35.340668
35.340667
35.340667
35.140667
35.140667
35.140667
35.140667
35.140667
35.140668
35.140668
35.140669
35.140670
35.140670
35.140671
35.140672
35.140673
35.140674
35.140675
35.140676
35.140677
35.140678
35.140679
35.140680
35.140681
35.140681
35.140682
35.140682
35.140683
35.140683
35.140683
35.140683
35.140682
35.140682
35.140681
35.140681
35.140680
35.140679
35.140678
35.140677
35.140676
35.140675
35.140674
35.140673
35.140672
35.140671
35.140670
35.140670
35.140669
35.140668
35.140668
35.140667
35.140667
35.140667
35.140667
35.140667
34.940666
34.940666
34.940666
34.940666
34.940666
34.940667
34.940668
34.940668
34.940669
34.940670
34.940671
34.940672
34.940673
34.940674
34.940675
34.940677
34.940678
34.940679
34.940680
34.940681
34.940681
34.940682
34.940683
34.940683
34.940683
34.940684
34.940684
34.940683
34.940683
34.940683
34.940682
34.940681
34.940681
34.940680
34.940679
34.940678
34.940677
34.940675
34.940674
34.940673
34.940672
34.940671
34.940670
34.940669
34.940668
34.940668
34.940667
34.940666
34.940666
34.940666
34.940666
34.940666
34.740665
34.740665
34.740665
34.740665
34.740665
34.740666
34.740667
34.740668
34.740669
34.740670
34.740671
34.740672
34.740673
34.740674
34.740676
34.740677
34.740678
34.740679
34.740680
34.740681
34.740682
34.740683
34.740684
34.740684
34.740684
34.740685
34.740685
34.740684
34.740684
34.740684
34.740683
34.740682
34.740681
34.740680
34.740679
34.740678
34.740677
34.740676
34.740674
34.740673
34.740672
34.740671
34.740670
34.740669
34.740668
34.740667
34.740666
34.740665
34.740665
34.740665
34.740665
34.740665
34.540663
34.540663
34.540664
34.540664
34.540664
34.540665
34.540666
34.540667
34.540668
34.540669
34.540670
34.540672
34.540673
34.540674
34.540676
34.540677
34.540678
34.540680
34.540681
34.540682
34.540683
34.540684
34.540685
34.540685
34.540685
34.540686
34.540686
34.540685
34.540685
34.540685
34.540684
34.540683
34.540682
34.540681
34.540680
34.540678
34.540677
34.540676
34.540674
34.540673
34.540672
34.540670
34.540669
34.540668
34.540667
34.540666
34.540665
34.540664
34.540664
34.540664
34.540663
34.540663
34.340662
34.340662
34.340662
34.340663
34.340663
34.340664
34.340665
34.340666
34.340667
34.340668
34.340670
34.340671
34.340673
34.340674
34.340676
34.340677
34.340679
34.340680
34.340682
34.340683
34.340684
34.340685
34.340686
34.340686
34.340687
34.340687
34.340687
34.340687
34.340686
34.340686
34.340685
34.340684
34.340683
34.340682
34.340680
34.340679
34.340677
34.340676
34.340674
34.340673
34.340671
34.340670
34.340668
34.340667
34.340666
34.340665
34.340664
34.340663
34.340663
34.340662
34.340662
34.340662
34.140660
34.140660
34.140661
34.140661
34.140662
34.140663
34.140664
34.140665
34.140666
34.140668
34.140669
34.140671
34.140673
34.140674
34.140676
34.140678
34.140680
34.140681
34.140683
34.140684
34.140685
34.140686
34.140687
34.140688
34.140688
34.140689
34.140689
34.140688
34.140688
34.140687
34.140686
34.140685
34.140684
34.140683
34.140681
34.140680
34.140678
34.140676
34.140674
34.140673
34.140671
34.140669
34.140668
34.140666
34.140665
34.140664
34.140663
34.140662
34.140661
34.140661
34.140660
34.140660
33.940659
33.940659
33.940659
33.940659
33.940660
33.940661
33.940662
33.940664
33.940665
33.940667
33.940669
33.940670
33.940672
33.940674
33.940676
33.940678
33.940680
33.940682
33.940684
33.940685
33.940687
33.940688
33.940689
33.940690
33.940690
33.940690
33.940690
33.940690
33.940690
33.940689
33.940688
33.940687
33.940685
33.940684
33.940682
33.940680
33.940678
33.940676
33.940674
33.940672
33.940670
33.940669
33.940667
33.940665
33.940664
33.940662
33.940661
33.940660
33.940659
33.940659
33.940659
33.940659
33.740657
33.740657
33.740657
33.740657
33.740658
33.740659
33.740661
33.740662
33.740664
33.740666
33.740668
33.740670
33.740672
33.740674
33.740677
33.740679
33.740681
33.740683
33.740685
33.740687
33.740688
33.740690
33.740691
33.740691
33.740692
33.740692
33.740692
33.740692
33.740691
33.740691
33.740690
33.740688
33.740687
33.740685
33.740683
33.740681
33.740679
33.740677
33.740674
33.740672
33.740670
33.740668
33.740666
33.740664
33.740662
33.740661
33.740659
33.740658
33.740657
33.740657
33.740657
33.740657
33.540654
33.540654
33.540655
33.540655
33.540656
33.540657
33.540659
33.540661
33.540663
33.540665
33.540667
33.540669
33.540672
33.540674
33.540677
33.540679
33.540682
33.540684
33.540686
33.540688
33.540690
33.540691
33.540693
33.540694
33.540694
33.540695
33.540695
33.540694
33.540694
33.540693
33.540691
33.540690
33.540688
33.540686
33.540684
33.540682
33.540679
33.540677
33.540674
33.540672
33.540669
33.540667
33.540665
33.540663
33.540661
33.540659
33.540657
33.540656
33.540655
33.540655
33.540654
33.540654
33.340652
33.340652
33.340652
33.340653
33.340654
33.340655
33.340657
33.340659
33.340661
33.340663
33.340666
33.340669
33.340672
33.340674
33.340677
33.340680
33.340683
33.340685
33.340688
33.340690
33.340692
33.340694
33.340695
33.340696
33.340697
33.340697
33.340697
33.340697
33.340696
33.340695
33.340694
33.340692
33.340690
33.340688
33.340685
33.340683
33.340680
33.340677
33.340674
33.340672
33.340669
33.340666
33.340663
33.340661
33.340659
33.340657
33.340655
33.340654
33.340653
33.340652
33.340652
33.340652
33.140649
33.140649
33.140649
33.140650
33.140651
33.140653
33.140655
33.140657
33.140659
33.140662
33.140665
33.140668
33.140671
33.140674
33.140678
33.140681
33.140684
33.140687
33.140690
33.140692
33.140694
33.140696
33.140698
33.140699
33.140700
33.140700
33.140700
33.140700
33.140699
33.140698
33.140696
33.140694
33.140692
33.140690
33.140687
33.140684
33.140681
33.140678
33.140674
33.140671
33.140668
33.140665
33.140662
33.140659
33.140657
33.140655
33.140653
33.140651
33.140650
33.140649
33.140649
33.140649
32.940646
32.940646
32.940646
32.940647
32.940648
32.940650
32.940652
32.940655
32.940657
32.940660
32.940664
32.940667
32.940671
32.940674
32.940678
32.940682
32.940685
32.940688
32.940691
32.940694
32.940697
32.940699
32.940701
32.940702
32.940703
32.940703
32.940703
32.940703
32.940702
32.940701
32.940699
32.940697
32.940694
32.940691
32.940688
32.940685
32.940682
32.940678
32.940674
32.940671
32.940667
32.940664
32.940660
32.940657
32.940655
32.940652
32.940650
32.940648
32.940647
32.940646
32.940646
32.940646
32.740642
32.740642
32.740642
32.740643
32.740645
32.740647
32.740649
32.740652
32.740655
32.740659
32.740662
32.740666
32.740670
32.740674
32.740679
32.740683
32.740686
32.740690
32.740694
32.740697
32.740700
32.740702
32.740704
32.740706
32.740707
32.740707
32.740707
32.740707
32.740706
32.740704
32.740702
32.740700
32.740697
32.740694
32.740690
32.740686
32.740683
32.740679
32.740674
32.740670
32.740666
32.740662
32.740659
32.740655
32.740652
32.740649
32.740647
32.740645
32.740643
32.740642
32.740642
32.740642
32.540638
32.540638
32.540638
32.540639
32.540641
32.540643
32.540646
32.540649
32.540653
32.540657
32.540661
32.540665
32.540670
32.540674
32.540679
32.540684
32.540688
32.540692
32.540696
32.540700
32.540703
32.540706
32.540708
32.540710
32.540711
32.540711
32.540711
32.540711
32.540710
32.540708
32.540706
32.540703
32.540700
32.540696
32.540692
32.540688
32.540684
32.540679
32.540674
32.540670
32.540665
32.540661
32.540657
32.540653
32.540649
32.540646
32.540643
32.540641
32.540639
32.540638
32.540638
32.540638
32.340633
32.340633
32.340633
32.340635
32.340637
32.340639
32.340642
32.340646
32.340650
32.340654
32.340659
32.340664
32.340669
32.340674
32.340680
32.340685
32.340690
32.340695
32.340699
32.340703
32.340707
32.340710
32.340712
32.340714
32.340716
32.340716
32.340716
32.340716
32.340714
32.340712
32.340710
32.340707
32.340703
32.340699
32.340695
32.340690
32.340685
32.340680
32.340674
32.340669
32.340664
32.340659
32.340654
32.340650
32.340646
32.340642
32.340639
32.340637
32.340635
32.340633
32.340633
32.340633
32.140627
32.140627
32.140628
32.140629
32.140632
32.140634
32.140638
32.140642
32.140647
32.140652
32.140657
32.140663
32.140668
32.140674
32.140680
32.140686
32.140692
32.140697
32.140702
32.140707
32.140711
32.140714
32.140717
32.140719
32.140721
32.140722
32.140722
32.140721
32.140719
32.140717
32.140714
32.140711
32.140707
32.140702
32.140697
32.140692
32.140686
32.140680
32.140674
32.140668
32.140663
32.140657
32.140652
32.140647
32.140642
32.140638
32.140634
32.140632
32.140629
32.140628
32.140627
32.140627
31.940621
31.940621
31.940622
31.940624
31.940626
31.940629
31.940633
31.940638
31.940643
31.940649
31.940655
31.940661
31.940668
31.940674
31.940681
31.940688
31.940694
31.940700
31.940706
31.940711
31.940716
31.940720
31.940723
31.940725
31.940727
31.940728
31.940728
31.940727
31.940725
31.940723
31.940720
31.940716
31.940711
31.940706
31.940700
31.940694
31.940688
31.940681
31.940674
31.940668
31.940661
31.940655
31.940649
31.940643
31.940638
31.940633
31.940629
31.940626
31.940624
31.940622
31.940621
31.940621
31.740614
31.740614
31.740615
31.740617
31.740620
31.740623
31.740628
31.740633
31.740639
31.740645
31.740652
31.740659
31.740667
31.740674
31.740682
31.740689
31.740697
31.740704
31.740710
31.740716
31.740721
31.740726
31.740729
31.740732
31.740734
31.740735
31.740735
31.740734
31.740732
31.740729
31.740726
31.740721
31.740716
31.740710
31.740704
31.740697
31.740689
31.740682
31.740674
31.740667
31.740659
31.740652
31.740645
31.740639
31.740633
31.740628
31.740623
31.740620
31.740617
31.740615
31.740614
31.740614
31.540606
31.540606
31.540607
31.540609
31.540613
31.540617
31.540622
31.540628
31.540634
31.540641
31.540649
31.540657
31.540666
31.540674
31.540683
31.540691
31.540700
31.540707
31.540715
31.540721
31.540727
31.540732
31.540736
31.540740
31.540742
31.540743
31.540743
31.540742
31.540740
31.540736
31.540732
31.540727
31.540721
31.540715
31.540707
31.540700
31.540691
31.540683
31.540674
31.540666
31.540657
31.540649
31.540641
31.540634
31.540628